V -t * -v 1.0a5 -a 0
A -t * -n 1 -p 0 -o 0x7fffffff -c 30 -a 1
A -t * -h 1 -m 1073741823 -s 0
c -t * -i 1 -n Blue
c -t * -i 2 -n Red
n -t * -a 4 -s 4 -S UP -v circle -c black -i black
n -t * -a 0 -s 0 -S UP -v circle -c black -i black
n -t * -a 5 -s 5 -S UP -v circle -c black -i black
n -t * -a 1 -s 1 -S UP -v circle -c black -i black
n -t * -a 2 -s 2 -S UP -v circle -c black -i black
n -t * -a 3 -s 3 -S UP -v circle -c black -i black
l -t * -s 0 -d 2 -S UP -r 4000000000 -D 0.5 -c black -o right-down
l -t * -s 1 -d 2 -S UP -r 4000000000 -D 0.80000000000000004 -c black -o right-up
l -t * -s 2 -d 3 -S UP -r 2000000000 -D 0.050000000000000003 -c black -o right
l -t * -s 3 -d 4 -S UP -r 4000000000 -D 0.5 -c black -o right-up
l -t * -s 3 -d 5 -S UP -r 4000000000 -D 0.80000000000000004 -c black -o right-down
+ -t 0 -s 1 -d 2 -p tcp -e 40 -c 2 -i 0 -a 2 -x {1.0 5.0 0 ------- null}
- -t 0 -s 1 -d 2 -p tcp -e 40 -c 2 -i 0 -a 2 -x {1.0 5.0 0 ------- null}
h -t 0 -s 1 -d 2 -p tcp -e 40 -c 2 -i 0 -a 2 -x {1.0 5.0 -1 ------- null}
+ -t 0 -s 0 -d 2 -p tcp -e 40 -c 1 -i 1 -a 1 -x {0.0 4.0 0 ------- null}
- -t 0 -s 0 -d 2 -p tcp -e 40 -c 1 -i 1 -a 1 -x {0.0 4.0 0 ------- null}
h -t 0 -s 0 -d 2 -p tcp -e 40 -c 1 -i 1 -a 1 -x {0.0 4.0 -1 ------- null}
r -t 0.50000008 -s 0 -d 2 -p tcp -e 40 -c 1 -i 1 -a 1 -x {0.0 4.0 0 ------- null}
+ -t 0.50000008 -s 2 -d 3 -p tcp -e 40 -c 1 -i 1 -a 1 -x {0.0 4.0 0 ------- null}
- -t 0.50000008 -s 2 -d 3 -p tcp -e 40 -c 1 -i 1 -a 1 -x {0.0 4.0 0 ------- null}
h -t 0.50000008 -s 2 -d 3 -p tcp -e 40 -c 1 -i 1 -a 1 -x {0.0 4.0 -1 ------- null}
r -t 0.55000024 -s 2 -d 3 -p tcp -e 40 -c 1 -i 1 -a 1 -x {0.0 4.0 0 ------- null}
+ -t 0.55000024 -s 3 -d 4 -p tcp -e 40 -c 1 -i 1 -a 1 -x {0.0 4.0 0 ------- null}
- -t 0.55000024 -s 3 -d 4 -p tcp -e 40 -c 1 -i 1 -a 1 -x {0.0 4.0 0 ------- null}
h -t 0.55000024 -s 3 -d 4 -p tcp -e 40 -c 1 -i 1 -a 1 -x {0.0 4.0 -1 ------- null}
r -t 0.80000008 -s 1 -d 2 -p tcp -e 40 -c 2 -i 0 -a 2 -x {1.0 5.0 0 ------- null}
+ -t 0.80000008 -s 2 -d 3 -p tcp -e 40 -c 2 -i 0 -a 2 -x {1.0 5.0 0 ------- null}
- -t 0.80000008 -s 2 -d 3 -p tcp -e 40 -c 2 -i 0 -a 2 -x {1.0 5.0 0 ------- null}
h -t 0.80000008 -s 2 -d 3 -p tcp -e 40 -c 2 -i 0 -a 2 -x {1.0 5.0 -1 ------- null}
r -t 0.85000024 -s 2 -d 3 -p tcp -e 40 -c 2 -i 0 -a 2 -x {1.0 5.0 0 ------- null}
+ -t 0.85000024 -s 3 -d 5 -p tcp -e 40 -c 2 -i 0 -a 2 -x {1.0 5.0 0 ------- null}
- -t 0.85000024 -s 3 -d 5 -p tcp -e 40 -c 2 -i 0 -a 2 -x {1.0 5.0 0 ------- null}
h -t 0.85000024 -s 3 -d 5 -p tcp -e 40 -c 2 -i 0 -a 2 -x {1.0 5.0 -1 ------- null}
r -t 1.05000032 -s 3 -d 4 -p tcp -e 40 -c 1 -i 1 -a 1 -x {0.0 4.0 0 ------- null}
+ -t 1.05000032 -s 4 -d 3 -p ack -e 40 -c 1 -i 2 -a 1 -x {4.0 0.0 0 ------- null}
- -t 1.05000032 -s 4 -d 3 -p ack -e 40 -c 1 -i 2 -a 1 -x {4.0 0.0 0 ------- null}
h -t 1.05000032 -s 4 -d 3 -p ack -e 40 -c 1 -i 2 -a 1 -x {4.0 0.0 -1 ------- null}
r -t 1.5500004 -s 4 -d 3 -p ack -e 40 -c 1 -i 2 -a 1 -x {4.0 0.0 0 ------- null}
+ -t 1.5500004 -s 3 -d 2 -p ack -e 40 -c 1 -i 2 -a 1 -x {4.0 0.0 0 ------- null}
- -t 1.5500004 -s 3 -d 2 -p ack -e 40 -c 1 -i 2 -a 1 -x {4.0 0.0 0 ------- null}
h -t 1.5500004 -s 3 -d 2 -p ack -e 40 -c 1 -i 2 -a 1 -x {4.0 0.0 -1 ------- null}
r -t 1.60000056 -s 3 -d 2 -p ack -e 40 -c 1 -i 2 -a 1 -x {4.0 0.0 0 ------- null}
+ -t 1.60000056 -s 2 -d 0 -p ack -e 40 -c 1 -i 2 -a 1 -x {4.0 0.0 0 ------- null}
- -t 1.60000056 -s 2 -d 0 -p ack -e 40 -c 1 -i 2 -a 1 -x {4.0 0.0 0 ------- null}
h -t 1.60000056 -s 2 -d 0 -p ack -e 40 -c 1 -i 2 -a 1 -x {4.0 0.0 -1 ------- null}
r -t 1.65000032 -s 3 -d 5 -p tcp -e 40 -c 2 -i 0 -a 2 -x {1.0 5.0 0 ------- null}
+ -t 1.65000032 -s 5 -d 3 -p ack -e 40 -c 2 -i 3 -a 2 -x {5.0 1.0 0 ------- null}
- -t 1.65000032 -s 5 -d 3 -p ack -e 40 -c 2 -i 3 -a 2 -x {5.0 1.0 0 ------- null}
h -t 1.65000032 -s 5 -d 3 -p ack -e 40 -c 2 -i 3 -a 2 -x {5.0 1.0 -1 ------- null}
r -t 2.10000064 -s 2 -d 0 -p ack -e 40 -c 1 -i 2 -a 1 -x {4.0 0.0 0 ------- null}
+ -t 2.10000064 -s 0 -d 2 -p tcp -e 1040 -c 1 -i 4 -a 1 -x {0.0 4.0 1 ------- null}
- -t 2.10000064 -s 0 -d 2 -p tcp -e 1040 -c 1 -i 4 -a 1 -x {0.0 4.0 1 ------- null}
h -t 2.10000064 -s 0 -d 2 -p tcp -e 1040 -c 1 -i 4 -a 1 -x {0.0 4.0 -1 ------- null}
+ -t 2.10000064 -s 0 -d 2 -p tcp -e 1040 -c 1 -i 5 -a 1 -x {0.0 4.0 2 ------- null}
- -t 2.10000272 -s 0 -d 2 -p tcp -e 1040 -c 1 -i 5 -a 1 -x {0.0 4.0 2 ------- null}
h -t 2.10000272 -s 0 -d 2 -p tcp -e 1040 -c 1 -i 5 -a 1 -x {0.0 4.0 -1 ------- null}
r -t 2.4500004 -s 5 -d 3 -p ack -e 40 -c 2 -i 3 -a 2 -x {5.0 1.0 0 ------- null}
+ -t 2.4500004 -s 3 -d 2 -p ack -e 40 -c 2 -i 3 -a 2 -x {5.0 1.0 0 ------- null}
- -t 2.4500004 -s 3 -d 2 -p ack -e 40 -c 2 -i 3 -a 2 -x {5.0 1.0 0 ------- null}
h -t 2.4500004 -s 3 -d 2 -p ack -e 40 -c 2 -i 3 -a 2 -x {5.0 1.0 -1 ------- null}
r -t 2.50000056 -s 3 -d 2 -p ack -e 40 -c 2 -i 3 -a 2 -x {5.0 1.0 0 ------- null}
+ -t 2.50000056 -s 2 -d 1 -p ack -e 40 -c 2 -i 3 -a 2 -x {5.0 1.0 0 ------- null}
- -t 2.50000056 -s 2 -d 1 -p ack -e 40 -c 2 -i 3 -a 2 -x {5.0 1.0 0 ------- null}
h -t 2.50000056 -s 2 -d 1 -p ack -e 40 -c 2 -i 3 -a 2 -x {5.0 1.0 -1 ------- null}
r -t 2.60000272 -s 0 -d 2 -p tcp -e 1040 -c 1 -i 4 -a 1 -x {0.0 4.0 1 ------- null}
+ -t 2.60000272 -s 2 -d 3 -p tcp -e 1040 -c 1 -i 4 -a 1 -x {0.0 4.0 1 ------- null}
- -t 2.60000272 -s 2 -d 3 -p tcp -e 1040 -c 1 -i 4 -a 1 -x {0.0 4.0 1 ------- null}
h -t 2.60000272 -s 2 -d 3 -p tcp -e 1040 -c 1 -i 4 -a 1 -x {0.0 4.0 -1 ------- null}
r -t 2.6000048 -s 0 -d 2 -p tcp -e 1040 -c 1 -i 5 -a 1 -x {0.0 4.0 2 ------- null}
+ -t 2.6000048 -s 2 -d 3 -p tcp -e 1040 -c 1 -i 5 -a 1 -x {0.0 4.0 2 ------- null}
- -t 2.60000688 -s 2 -d 3 -p tcp -e 1040 -c 1 -i 5 -a 1 -x {0.0 4.0 2 ------- null}
h -t 2.60000688 -s 2 -d 3 -p tcp -e 1040 -c 1 -i 5 -a 1 -x {0.0 4.0 -1 ------- null}
r -t 2.65000688 -s 2 -d 3 -p tcp -e 1040 -c 1 -i 4 -a 1 -x {0.0 4.0 1 ------- null}
+ -t 2.65000688 -s 3 -d 4 -p tcp -e 1040 -c 1 -i 4 -a 1 -x {0.0 4.0 1 ------- null}
- -t 2.65000688 -s 3 -d 4 -p tcp -e 1040 -c 1 -i 4 -a 1 -x {0.0 4.0 1 ------- null}
h -t 2.65000688 -s 3 -d 4 -p tcp -e 1040 -c 1 -i 4 -a 1 -x {0.0 4.0 -1 ------- null}
r -t 2.65001104 -s 2 -d 3 -p tcp -e 1040 -c 1 -i 5 -a 1 -x {0.0 4.0 2 ------- null}
+ -t 2.65001104 -s 3 -d 4 -p tcp -e 1040 -c 1 -i 5 -a 1 -x {0.0 4.0 2 ------- null}
- -t 2.65001104 -s 3 -d 4 -p tcp -e 1040 -c 1 -i 5 -a 1 -x {0.0 4.0 2 ------- null}
h -t 2.65001104 -s 3 -d 4 -p tcp -e 1040 -c 1 -i 5 -a 1 -x {0.0 4.0 -1 ------- null}
+ -t 3 -s 1 -d 2 -p tcp -e 40 -c 2 -i 6 -a 2 -x {1.0 5.0 0 ---A--- null}
- -t 3 -s 1 -d 2 -p tcp -e 40 -c 2 -i 6 -a 2 -x {1.0 5.0 0 ---A--- null}
h -t 3 -s 1 -d 2 -p tcp -e 40 -c 2 -i 6 -a 2 -x {1.0 5.0 -1 ---A--- null}
r -t 3.15000896 -s 3 -d 4 -p tcp -e 1040 -c 1 -i 4 -a 1 -x {0.0 4.0 1 ------- null}
+ -t 3.15000896 -s 4 -d 3 -p ack -e 40 -c 1 -i 7 -a 1 -x {4.0 0.0 1 ------- null}
- -t 3.15000896 -s 4 -d 3 -p ack -e 40 -c 1 -i 7 -a 1 -x {4.0 0.0 1 ------- null}
h -t 3.15000896 -s 4 -d 3 -p ack -e 40 -c 1 -i 7 -a 1 -x {4.0 0.0 -1 ------- null}
r -t 3.15001312 -s 3 -d 4 -p tcp -e 1040 -c 1 -i 5 -a 1 -x {0.0 4.0 2 ------- null}
+ -t 3.15001312 -s 4 -d 3 -p ack -e 40 -c 1 -i 8 -a 1 -x {4.0 0.0 2 ------- null}
- -t 3.15001312 -s 4 -d 3 -p ack -e 40 -c 1 -i 8 -a 1 -x {4.0 0.0 2 ------- null}
h -t 3.15001312 -s 4 -d 3 -p ack -e 40 -c 1 -i 8 -a 1 -x {4.0 0.0 -1 ------- null}
r -t 3.30000064 -s 2 -d 1 -p ack -e 40 -c 2 -i 3 -a 2 -x {5.0 1.0 0 ------- null}
+ -t 3.30000064 -s 1 -d 2 -p tcp -e 1040 -c 2 -i 9 -a 2 -x {1.0 5.0 1 ------- null}
- -t 3.30000064 -s 1 -d 2 -p tcp -e 1040 -c 2 -i 9 -a 2 -x {1.0 5.0 1 ------- null}
h -t 3.30000064 -s 1 -d 2 -p tcp -e 1040 -c 2 -i 9 -a 2 -x {1.0 5.0 -1 ------- null}
r -t 3.65000904 -s 4 -d 3 -p ack -e 40 -c 1 -i 7 -a 1 -x {4.0 0.0 1 ------- null}
+ -t 3.65000904 -s 3 -d 2 -p ack -e 40 -c 1 -i 7 -a 1 -x {4.0 0.0 1 ------- null}
- -t 3.65000904 -s 3 -d 2 -p ack -e 40 -c 1 -i 7 -a 1 -x {4.0 0.0 1 ------- null}
h -t 3.65000904 -s 3 -d 2 -p ack -e 40 -c 1 -i 7 -a 1 -x {4.0 0.0 -1 ------- null}
r -t 3.6500132 -s 4 -d 3 -p ack -e 40 -c 1 -i 8 -a 1 -x {4.0 0.0 2 ------- null}
+ -t 3.6500132 -s 3 -d 2 -p ack -e 40 -c 1 -i 8 -a 1 -x {4.0 0.0 2 ------- null}
- -t 3.6500132 -s 3 -d 2 -p ack -e 40 -c 1 -i 8 -a 1 -x {4.0 0.0 2 ------- null}
h -t 3.6500132 -s 3 -d 2 -p ack -e 40 -c 1 -i 8 -a 1 -x {4.0 0.0 -1 ------- null}
r -t 3.7000092 -s 3 -d 2 -p ack -e 40 -c 1 -i 7 -a 1 -x {4.0 0.0 1 ------- null}
+ -t 3.7000092 -s 2 -d 0 -p ack -e 40 -c 1 -i 7 -a 1 -x {4.0 0.0 1 ------- null}
- -t 3.7000092 -s 2 -d 0 -p ack -e 40 -c 1 -i 7 -a 1 -x {4.0 0.0 1 ------- null}
h -t 3.7000092 -s 2 -d 0 -p ack -e 40 -c 1 -i 7 -a 1 -x {4.0 0.0 -1 ------- null}
r -t 3.70001336 -s 3 -d 2 -p ack -e 40 -c 1 -i 8 -a 1 -x {4.0 0.0 2 ------- null}
+ -t 3.70001336 -s 2 -d 0 -p ack -e 40 -c 1 -i 8 -a 1 -x {4.0 0.0 2 ------- null}
- -t 3.70001336 -s 2 -d 0 -p ack -e 40 -c 1 -i 8 -a 1 -x {4.0 0.0 2 ------- null}
h -t 3.70001336 -s 2 -d 0 -p ack -e 40 -c 1 -i 8 -a 1 -x {4.0 0.0 -1 ------- null}
r -t 3.80000008 -s 1 -d 2 -p tcp -e 40 -c 2 -i 6 -a 2 -x {1.0 5.0 0 ---A--- null}
+ -t 3.80000008 -s 2 -d 3 -p tcp -e 40 -c 2 -i 6 -a 2 -x {1.0 5.0 0 ---A--- null}
- -t 3.80000008 -s 2 -d 3 -p tcp -e 40 -c 2 -i 6 -a 2 -x {1.0 5.0 0 ---A--- null}
h -t 3.80000008 -s 2 -d 3 -p tcp -e 40 -c 2 -i 6 -a 2 -x {1.0 5.0 -1 ---A--- null}
r -t 3.85000024 -s 2 -d 3 -p tcp -e 40 -c 2 -i 6 -a 2 -x {1.0 5.0 0 ---A--- null}
+ -t 3.85000024 -s 3 -d 5 -p tcp -e 40 -c 2 -i 6 -a 2 -x {1.0 5.0 0 ---A--- null}
- -t 3.85000024 -s 3 -d 5 -p tcp -e 40 -c 2 -i 6 -a 2 -x {1.0 5.0 0 ---A--- null}
h -t 3.85000024 -s 3 -d 5 -p tcp -e 40 -c 2 -i 6 -a 2 -x {1.0 5.0 -1 ---A--- null}
r -t 4.10000272 -s 1 -d 2 -p tcp -e 1040 -c 2 -i 9 -a 2 -x {1.0 5.0 1 ------- null}
+ -t 4.10000272 -s 2 -d 3 -p tcp -e 1040 -c 2 -i 9 -a 2 -x {1.0 5.0 1 ------- null}
- -t 4.10000272 -s 2 -d 3 -p tcp -e 1040 -c 2 -i 9 -a 2 -x {1.0 5.0 1 ------- null}
h -t 4.10000272 -s 2 -d 3 -p tcp -e 1040 -c 2 -i 9 -a 2 -x {1.0 5.0 -1 ------- null}
r -t 4.15000688 -s 2 -d 3 -p tcp -e 1040 -c 2 -i 9 -a 2 -x {1.0 5.0 1 ------- null}
+ -t 4.15000688 -s 3 -d 5 -p tcp -e 1040 -c 2 -i 9 -a 2 -x {1.0 5.0 1 ------- null}
- -t 4.15000688 -s 3 -d 5 -p tcp -e 1040 -c 2 -i 9 -a 2 -x {1.0 5.0 1 ------- null}
h -t 4.15000688 -s 3 -d 5 -p tcp -e 1040 -c 2 -i 9 -a 2 -x {1.0 5.0 -1 ------- null}
r -t 4.20000928 -s 2 -d 0 -p ack -e 40 -c 1 -i 7 -a 1 -x {4.0 0.0 1 ------- null}
+ -t 4.20000928 -s 0 -d 2 -p tcp -e 1040 -c 1 -i 10 -a 1 -x {0.0 4.0 3 ------- null}
- -t 4.20000928 -s 0 -d 2 -p tcp -e 1040 -c 1 -i 10 -a 1 -x {0.0 4.0 3 ------- null}
h -t 4.20000928 -s 0 -d 2 -p tcp -e 1040 -c 1 -i 10 -a 1 -x {0.0 4.0 -1 ------- null}
+ -t 4.20000928 -s 0 -d 2 -p tcp -e 1040 -c 1 -i 11 -a 1 -x {0.0 4.0 4 ------- null}
- -t 4.20001136 -s 0 -d 2 -p tcp -e 1040 -c 1 -i 11 -a 1 -x {0.0 4.0 4 ------- null}
h -t 4.20001136 -s 0 -d 2 -p tcp -e 1040 -c 1 -i 11 -a 1 -x {0.0 4.0 -1 ------- null}
r -t 4.20001344 -s 2 -d 0 -p ack -e 40 -c 1 -i 8 -a 1 -x {4.0 0.0 2 ------- null}
+ -t 4.20001344 -s 0 -d 2 -p tcp -e 1040 -c 1 -i 12 -a 1 -x {0.0 4.0 5 ------- null}
+ -t 4.20001344 -s 0 -d 2 -p tcp -e 1040 -c 1 -i 13 -a 1 -x {0.0 4.0 6 ------- null}
- -t 4.20001344 -s 0 -d 2 -p tcp -e 1040 -c 1 -i 12 -a 1 -x {0.0 4.0 5 ------- null}
h -t 4.20001344 -s 0 -d 2 -p tcp -e 1040 -c 1 -i 12 -a 1 -x {0.0 4.0 -1 ------- null}
- -t 4.20001552 -s 0 -d 2 -p tcp -e 1040 -c 1 -i 13 -a 1 -x {0.0 4.0 6 ------- null}
h -t 4.20001552 -s 0 -d 2 -p tcp -e 1040 -c 1 -i 13 -a 1 -x {0.0 4.0 -1 ------- null}
r -t 4.65000032 -s 3 -d 5 -p tcp -e 40 -c 2 -i 6 -a 2 -x {1.0 5.0 0 ---A--- null}
+ -t 4.65000032 -s 5 -d 3 -p ack -e 40 -c 2 -i 14 -a 2 -x {5.0 1.0 0 ------- null}
- -t 4.65000032 -s 5 -d 3 -p ack -e 40 -c 2 -i 14 -a 2 -x {5.0 1.0 0 ------- null}
h -t 4.65000032 -s 5 -d 3 -p ack -e 40 -c 2 -i 14 -a 2 -x {5.0 1.0 -1 ------- null}
r -t 4.70001136 -s 0 -d 2 -p tcp -e 1040 -c 1 -i 10 -a 1 -x {0.0 4.0 3 ------- null}
+ -t 4.70001136 -s 2 -d 3 -p tcp -e 1040 -c 1 -i 10 -a 1 -x {0.0 4.0 3 ------- null}
- -t 4.70001136 -s 2 -d 3 -p tcp -e 1040 -c 1 -i 10 -a 1 -x {0.0 4.0 3 ------- null}
h -t 4.70001136 -s 2 -d 3 -p tcp -e 1040 -c 1 -i 10 -a 1 -x {0.0 4.0 -1 ------- null}
r -t 4.70001344 -s 0 -d 2 -p tcp -e 1040 -c 1 -i 11 -a 1 -x {0.0 4.0 4 ------- null}
+ -t 4.70001344 -s 2 -d 3 -p tcp -e 1040 -c 1 -i 11 -a 1 -x {0.0 4.0 4 ------- null}
r -t 4.70001552 -s 0 -d 2 -p tcp -e 1040 -c 1 -i 12 -a 1 -x {0.0 4.0 5 ------- null}
+ -t 4.70001552 -s 2 -d 3 -p tcp -e 1040 -c 1 -i 12 -a 1 -x {0.0 4.0 5 ------- null}
- -t 4.70001552 -s 2 -d 3 -p tcp -e 1040 -c 1 -i 11 -a 1 -x {0.0 4.0 4 ------- null}
h -t 4.70001552 -s 2 -d 3 -p tcp -e 1040 -c 1 -i 11 -a 1 -x {0.0 4.0 -1 ------- null}
r -t 4.7000176 -s 0 -d 2 -p tcp -e 1040 -c 1 -i 13 -a 1 -x {0.0 4.0 6 ------- null}
+ -t 4.7000176 -s 2 -d 3 -p tcp -e 1040 -c 1 -i 13 -a 1 -x {0.0 4.0 6 ------- null}
- -t 4.70001968 -s 2 -d 3 -p tcp -e 1040 -c 1 -i 12 -a 1 -x {0.0 4.0 5 ------- null}
h -t 4.70001968 -s 2 -d 3 -p tcp -e 1040 -c 1 -i 12 -a 1 -x {0.0 4.0 -1 ------- null}
- -t 4.70002384 -s 2 -d 3 -p tcp -e 1040 -c 1 -i 13 -a 1 -x {0.0 4.0 6 ------- null}
h -t 4.70002384 -s 2 -d 3 -p tcp -e 1040 -c 1 -i 13 -a 1 -x {0.0 4.0 -1 ------- null}
r -t 4.75001552 -s 2 -d 3 -p tcp -e 1040 -c 1 -i 10 -a 1 -x {0.0 4.0 3 ------- null}
+ -t 4.75001552 -s 3 -d 4 -p tcp -e 1040 -c 1 -i 10 -a 1 -x {0.0 4.0 3 ------- null}
- -t 4.75001552 -s 3 -d 4 -p tcp -e 1040 -c 1 -i 10 -a 1 -x {0.0 4.0 3 ------- null}
h -t 4.75001552 -s 3 -d 4 -p tcp -e 1040 -c 1 -i 10 -a 1 -x {0.0 4.0 -1 ------- null}
r -t 4.75001968 -s 2 -d 3 -p tcp -e 1040 -c 1 -i 11 -a 1 -x {0.0 4.0 4 ------- null}
+ -t 4.75001968 -s 3 -d 4 -p tcp -e 1040 -c 1 -i 11 -a 1 -x {0.0 4.0 4 ------- null}
- -t 4.75001968 -s 3 -d 4 -p tcp -e 1040 -c 1 -i 11 -a 1 -x {0.0 4.0 4 ------- null}
h -t 4.75001968 -s 3 -d 4 -p tcp -e 1040 -c 1 -i 11 -a 1 -x {0.0 4.0 -1 ------- null}
r -t 4.75002384 -s 2 -d 3 -p tcp -e 1040 -c 1 -i 12 -a 1 -x {0.0 4.0 5 ------- null}
+ -t 4.75002384 -s 3 -d 4 -p tcp -e 1040 -c 1 -i 12 -a 1 -x {0.0 4.0 5 ------- null}
- -t 4.75002384 -s 3 -d 4 -p tcp -e 1040 -c 1 -i 12 -a 1 -x {0.0 4.0 5 ------- null}
h -t 4.75002384 -s 3 -d 4 -p tcp -e 1040 -c 1 -i 12 -a 1 -x {0.0 4.0 -1 ------- null}
r -t 4.750028 -s 2 -d 3 -p tcp -e 1040 -c 1 -i 13 -a 1 -x {0.0 4.0 6 ------- null}
+ -t 4.750028 -s 3 -d 4 -p tcp -e 1040 -c 1 -i 13 -a 1 -x {0.0 4.0 6 ------- null}
- -t 4.750028 -s 3 -d 4 -p tcp -e 1040 -c 1 -i 13 -a 1 -x {0.0 4.0 6 ------- null}
h -t 4.750028 -s 3 -d 4 -p tcp -e 1040 -c 1 -i 13 -a 1 -x {0.0 4.0 -1 ------- null}
r -t 4.95000896 -s 3 -d 5 -p tcp -e 1040 -c 2 -i 9 -a 2 -x {1.0 5.0 1 ------- null}
+ -t 4.95000896 -s 5 -d 3 -p ack -e 40 -c 2 -i 15 -a 2 -x {5.0 1.0 1 ------- null}
- -t 4.95000896 -s 5 -d 3 -p ack -e 40 -c 2 -i 15 -a 2 -x {5.0 1.0 1 ------- null}
h -t 4.95000896 -s 5 -d 3 -p ack -e 40 -c 2 -i 15 -a 2 -x {5.0 1.0 -1 ------- null}
r -t 5.2500176 -s 3 -d 4 -p tcp -e 1040 -c 1 -i 10 -a 1 -x {0.0 4.0 3 ------- null}
+ -t 5.2500176 -s 4 -d 3 -p ack -e 40 -c 1 -i 16 -a 1 -x {4.0 0.0 3 ------- null}
- -t 5.2500176 -s 4 -d 3 -p ack -e 40 -c 1 -i 16 -a 1 -x {4.0 0.0 3 ------- null}
h -t 5.2500176 -s 4 -d 3 -p ack -e 40 -c 1 -i 16 -a 1 -x {4.0 0.0 -1 ------- null}
r -t 5.25002176 -s 3 -d 4 -p tcp -e 1040 -c 1 -i 11 -a 1 -x {0.0 4.0 4 ------- null}
+ -t 5.25002176 -s 4 -d 3 -p ack -e 40 -c 1 -i 17 -a 1 -x {4.0 0.0 4 ------- null}
- -t 5.25002176 -s 4 -d 3 -p ack -e 40 -c 1 -i 17 -a 1 -x {4.0 0.0 4 ------- null}
h -t 5.25002176 -s 4 -d 3 -p ack -e 40 -c 1 -i 17 -a 1 -x {4.0 0.0 -1 ------- null}
r -t 5.25002592 -s 3 -d 4 -p tcp -e 1040 -c 1 -i 12 -a 1 -x {0.0 4.0 5 ------- null}
+ -t 5.25002592 -s 4 -d 3 -p ack -e 40 -c 1 -i 18 -a 1 -x {4.0 0.0 5 ------- null}
- -t 5.25002592 -s 4 -d 3 -p ack -e 40 -c 1 -i 18 -a 1 -x {4.0 0.0 5 ------- null}
h -t 5.25002592 -s 4 -d 3 -p ack -e 40 -c 1 -i 18 -a 1 -x {4.0 0.0 -1 ------- null}
r -t 5.25003008 -s 3 -d 4 -p tcp -e 1040 -c 1 -i 13 -a 1 -x {0.0 4.0 6 ------- null}
+ -t 5.25003008 -s 4 -d 3 -p ack -e 40 -c 1 -i 19 -a 1 -x {4.0 0.0 6 ------- null}
- -t 5.25003008 -s 4 -d 3 -p ack -e 40 -c 1 -i 19 -a 1 -x {4.0 0.0 6 ------- null}
h -t 5.25003008 -s 4 -d 3 -p ack -e 40 -c 1 -i 19 -a 1 -x {4.0 0.0 -1 ------- null}
r -t 5.4500004 -s 5 -d 3 -p ack -e 40 -c 2 -i 14 -a 2 -x {5.0 1.0 0 ------- null}
+ -t 5.4500004 -s 3 -d 2 -p ack -e 40 -c 2 -i 14 -a 2 -x {5.0 1.0 0 ------- null}
- -t 5.4500004 -s 3 -d 2 -p ack -e 40 -c 2 -i 14 -a 2 -x {5.0 1.0 0 ------- null}
h -t 5.4500004 -s 3 -d 2 -p ack -e 40 -c 2 -i 14 -a 2 -x {5.0 1.0 -1 ------- null}
r -t 5.50000056 -s 3 -d 2 -p ack -e 40 -c 2 -i 14 -a 2 -x {5.0 1.0 0 ------- null}
+ -t 5.50000056 -s 2 -d 1 -p ack -e 40 -c 2 -i 14 -a 2 -x {5.0 1.0 0 ------- null}
- -t 5.50000056 -s 2 -d 1 -p ack -e 40 -c 2 -i 14 -a 2 -x {5.0 1.0 0 ------- null}
h -t 5.50000056 -s 2 -d 1 -p ack -e 40 -c 2 -i 14 -a 2 -x {5.0 1.0 -1 ------- null}
r -t 5.75000904 -s 5 -d 3 -p ack -e 40 -c 2 -i 15 -a 2 -x {5.0 1.0 1 ------- null}
+ -t 5.75000904 -s 3 -d 2 -p ack -e 40 -c 2 -i 15 -a 2 -x {5.0 1.0 1 ------- null}
- -t 5.75000904 -s 3 -d 2 -p ack -e 40 -c 2 -i 15 -a 2 -x {5.0 1.0 1 ------- null}
h -t 5.75000904 -s 3 -d 2 -p ack -e 40 -c 2 -i 15 -a 2 -x {5.0 1.0 -1 ------- null}
r -t 5.75001768 -s 4 -d 3 -p ack -e 40 -c 1 -i 16 -a 1 -x {4.0 0.0 3 ------- null}
+ -t 5.75001768 -s 3 -d 2 -p ack -e 40 -c 1 -i 16 -a 1 -x {4.0 0.0 3 ------- null}
- -t 5.75001768 -s 3 -d 2 -p ack -e 40 -c 1 -i 16 -a 1 -x {4.0 0.0 3 ------- null}
h -t 5.75001768 -s 3 -d 2 -p ack -e 40 -c 1 -i 16 -a 1 -x {4.0 0.0 -1 ------- null}
r -t 5.75002184 -s 4 -d 3 -p ack -e 40 -c 1 -i 17 -a 1 -x {4.0 0.0 4 ------- null}
+ -t 5.75002184 -s 3 -d 2 -p ack -e 40 -c 1 -i 17 -a 1 -x {4.0 0.0 4 ------- null}
- -t 5.75002184 -s 3 -d 2 -p ack -e 40 -c 1 -i 17 -a 1 -x {4.0 0.0 4 ------- null}
h -t 5.75002184 -s 3 -d 2 -p ack -e 40 -c 1 -i 17 -a 1 -x {4.0 0.0 -1 ------- null}
r -t 5.750026 -s 4 -d 3 -p ack -e 40 -c 1 -i 18 -a 1 -x {4.0 0.0 5 ------- null}
+ -t 5.750026 -s 3 -d 2 -p ack -e 40 -c 1 -i 18 -a 1 -x {4.0 0.0 5 ------- null}
- -t 5.750026 -s 3 -d 2 -p ack -e 40 -c 1 -i 18 -a 1 -x {4.0 0.0 5 ------- null}
h -t 5.750026 -s 3 -d 2 -p ack -e 40 -c 1 -i 18 -a 1 -x {4.0 0.0 -1 ------- null}
r -t 5.75003016 -s 4 -d 3 -p ack -e 40 -c 1 -i 19 -a 1 -x {4.0 0.0 6 ------- null}
+ -t 5.75003016 -s 3 -d 2 -p ack -e 40 -c 1 -i 19 -a 1 -x {4.0 0.0 6 ------- null}
- -t 5.75003016 -s 3 -d 2 -p ack -e 40 -c 1 -i 19 -a 1 -x {4.0 0.0 6 ------- null}
h -t 5.75003016 -s 3 -d 2 -p ack -e 40 -c 1 -i 19 -a 1 -x {4.0 0.0 -1 ------- null}
r -t 5.8000092 -s 3 -d 2 -p ack -e 40 -c 2 -i 15 -a 2 -x {5.0 1.0 1 ------- null}
+ -t 5.8000092 -s 2 -d 1 -p ack -e 40 -c 2 -i 15 -a 2 -x {5.0 1.0 1 ------- null}
- -t 5.8000092 -s 2 -d 1 -p ack -e 40 -c 2 -i 15 -a 2 -x {5.0 1.0 1 ------- null}
h -t 5.8000092 -s 2 -d 1 -p ack -e 40 -c 2 -i 15 -a 2 -x {5.0 1.0 -1 ------- null}
r -t 5.80001784 -s 3 -d 2 -p ack -e 40 -c 1 -i 16 -a 1 -x {4.0 0.0 3 ------- null}
+ -t 5.80001784 -s 2 -d 0 -p ack -e 40 -c 1 -i 16 -a 1 -x {4.0 0.0 3 ------- null}
- -t 5.80001784 -s 2 -d 0 -p ack -e 40 -c 1 -i 16 -a 1 -x {4.0 0.0 3 ------- null}
h -t 5.80001784 -s 2 -d 0 -p ack -e 40 -c 1 -i 16 -a 1 -x {4.0 0.0 -1 ------- null}
r -t 5.800022 -s 3 -d 2 -p ack -e 40 -c 1 -i 17 -a 1 -x {4.0 0.0 4 ------- null}
+ -t 5.800022 -s 2 -d 0 -p ack -e 40 -c 1 -i 17 -a 1 -x {4.0 0.0 4 ------- null}
- -t 5.800022 -s 2 -d 0 -p ack -e 40 -c 1 -i 17 -a 1 -x {4.0 0.0 4 ------- null}
h -t 5.800022 -s 2 -d 0 -p ack -e 40 -c 1 -i 17 -a 1 -x {4.0 0.0 -1 ------- null}
r -t 5.80002616 -s 3 -d 2 -p ack -e 40 -c 1 -i 18 -a 1 -x {4.0 0.0 5 ------- null}
+ -t 5.80002616 -s 2 -d 0 -p ack -e 40 -c 1 -i 18 -a 1 -x {4.0 0.0 5 ------- null}
- -t 5.80002616 -s 2 -d 0 -p ack -e 40 -c 1 -i 18 -a 1 -x {4.0 0.0 5 ------- null}
h -t 5.80002616 -s 2 -d 0 -p ack -e 40 -c 1 -i 18 -a 1 -x {4.0 0.0 -1 ------- null}
r -t 5.80003032 -s 3 -d 2 -p ack -e 40 -c 1 -i 19 -a 1 -x {4.0 0.0 6 ------- null}
+ -t 5.80003032 -s 2 -d 0 -p ack -e 40 -c 1 -i 19 -a 1 -x {4.0 0.0 6 ------- null}
- -t 5.80003032 -s 2 -d 0 -p ack -e 40 -c 1 -i 19 -a 1 -x {4.0 0.0 6 ------- null}
h -t 5.80003032 -s 2 -d 0 -p ack -e 40 -c 1 -i 19 -a 1 -x {4.0 0.0 -1 ------- null}
r -t 6.30000064 -s 2 -d 1 -p ack -e 40 -c 2 -i 14 -a 2 -x {5.0 1.0 0 ------- null}
+ -t 6.30000064 -s 1 -d 2 -p tcp -e 1040 -c 2 -i 20 -a 2 -x {1.0 5.0 2 ------- null}
- -t 6.30000064 -s 1 -d 2 -p tcp -e 1040 -c 2 -i 20 -a 2 -x {1.0 5.0 2 ------- null}
h -t 6.30000064 -s 1 -d 2 -p tcp -e 1040 -c 2 -i 20 -a 2 -x {1.0 5.0 -1 ------- null}
r -t 6.30001792 -s 2 -d 0 -p ack -e 40 -c 1 -i 16 -a 1 -x {4.0 0.0 3 ------- null}
+ -t 6.30001792 -s 0 -d 2 -p tcp -e 1040 -c 1 -i 21 -a 1 -x {0.0 4.0 7 ------- null}
- -t 6.30001792 -s 0 -d 2 -p tcp -e 1040 -c 1 -i 21 -a 1 -x {0.0 4.0 7 ------- null}
h -t 6.30001792 -s 0 -d 2 -p tcp -e 1040 -c 1 -i 21 -a 1 -x {0.0 4.0 -1 ------- null}
+ -t 6.30001792 -s 0 -d 2 -p tcp -e 1040 -c 1 -i 22 -a 1 -x {0.0 4.0 8 ------- null}
- -t 6.30002 -s 0 -d 2 -p tcp -e 1040 -c 1 -i 22 -a 1 -x {0.0 4.0 8 ------- null}
h -t 6.30002 -s 0 -d 2 -p tcp -e 1040 -c 1 -i 22 -a 1 -x {0.0 4.0 -1 ------- null}
r -t 6.30002208 -s 2 -d 0 -p ack -e 40 -c 1 -i 17 -a 1 -x {4.0 0.0 4 ------- null}
+ -t 6.30002208 -s 0 -d 2 -p tcp -e 1040 -c 1 -i 23 -a 1 -x {0.0 4.0 9 ------- null}
+ -t 6.30002208 -s 0 -d 2 -p tcp -e 1040 -c 1 -i 24 -a 1 -x {0.0 4.0 10 ------- null}
- -t 6.30002208 -s 0 -d 2 -p tcp -e 1040 -c 1 -i 23 -a 1 -x {0.0 4.0 9 ------- null}
h -t 6.30002208 -s 0 -d 2 -p tcp -e 1040 -c 1 -i 23 -a 1 -x {0.0 4.0 -1 ------- null}
- -t 6.30002416 -s 0 -d 2 -p tcp -e 1040 -c 1 -i 24 -a 1 -x {0.0 4.0 10 ------- null}
h -t 6.30002416 -s 0 -d 2 -p tcp -e 1040 -c 1 -i 24 -a 1 -x {0.0 4.0 -1 ------- null}
r -t 6.30002624 -s 2 -d 0 -p ack -e 40 -c 1 -i 18 -a 1 -x {4.0 0.0 5 ------- null}
+ -t 6.30002624 -s 0 -d 2 -p tcp -e 1040 -c 1 -i 25 -a 1 -x {0.0 4.0 11 ------- null}
+ -t 6.30002624 -s 0 -d 2 -p tcp -e 1040 -c 1 -i 26 -a 1 -x {0.0 4.0 12 ------- null}
- -t 6.30002624 -s 0 -d 2 -p tcp -e 1040 -c 1 -i 25 -a 1 -x {0.0 4.0 11 ------- null}
h -t 6.30002624 -s 0 -d 2 -p tcp -e 1040 -c 1 -i 25 -a 1 -x {0.0 4.0 -1 ------- null}
- -t 6.30002832 -s 0 -d 2 -p tcp -e 1040 -c 1 -i 26 -a 1 -x {0.0 4.0 12 ------- null}
h -t 6.30002832 -s 0 -d 2 -p tcp -e 1040 -c 1 -i 26 -a 1 -x {0.0 4.0 -1 ------- null}
r -t 6.3000304 -s 2 -d 0 -p ack -e 40 -c 1 -i 19 -a 1 -x {4.0 0.0 6 ------- null}
+ -t 6.3000304 -s 0 -d 2 -p tcp -e 1040 -c 1 -i 27 -a 1 -x {0.0 4.0 13 ------- null}
+ -t 6.3000304 -s 0 -d 2 -p tcp -e 1040 -c 1 -i 28 -a 1 -x {0.0 4.0 14 ------- null}
- -t 6.3000304 -s 0 -d 2 -p tcp -e 1040 -c 1 -i 27 -a 1 -x {0.0 4.0 13 ------- null}
h -t 6.3000304 -s 0 -d 2 -p tcp -e 1040 -c 1 -i 27 -a 1 -x {0.0 4.0 -1 ------- null}
- -t 6.30003248 -s 0 -d 2 -p tcp -e 1040 -c 1 -i 28 -a 1 -x {0.0 4.0 14 ------- null}
h -t 6.30003248 -s 0 -d 2 -p tcp -e 1040 -c 1 -i 28 -a 1 -x {0.0 4.0 -1 ------- null}
r -t 6.60000928 -s 2 -d 1 -p ack -e 40 -c 2 -i 15 -a 2 -x {5.0 1.0 1 ------- null}
+ -t 6.60000928 -s 1 -d 2 -p tcp -e 1040 -c 2 -i 29 -a 2 -x {1.0 5.0 3 ------- null}
- -t 6.60000928 -s 1 -d 2 -p tcp -e 1040 -c 2 -i 29 -a 2 -x {1.0 5.0 3 ------- null}
h -t 6.60000928 -s 1 -d 2 -p tcp -e 1040 -c 2 -i 29 -a 2 -x {1.0 5.0 -1 ------- null}
r -t 6.80002 -s 0 -d 2 -p tcp -e 1040 -c 1 -i 21 -a 1 -x {0.0 4.0 7 ------- null}
+ -t 6.80002 -s 2 -d 3 -p tcp -e 1040 -c 1 -i 21 -a 1 -x {0.0 4.0 7 ------- null}
- -t 6.80002 -s 2 -d 3 -p tcp -e 1040 -c 1 -i 21 -a 1 -x {0.0 4.0 7 ------- null}
h -t 6.80002 -s 2 -d 3 -p tcp -e 1040 -c 1 -i 21 -a 1 -x {0.0 4.0 -1 ------- null}
r -t 6.80002208 -s 0 -d 2 -p tcp -e 1040 -c 1 -i 22 -a 1 -x {0.0 4.0 8 ------- null}
+ -t 6.80002208 -s 2 -d 3 -p tcp -e 1040 -c 1 -i 22 -a 1 -x {0.0 4.0 8 ------- null}
r -t 6.80002416 -s 0 -d 2 -p tcp -e 1040 -c 1 -i 23 -a 1 -x {0.0 4.0 9 ------- null}
+ -t 6.80002416 -s 2 -d 3 -p tcp -e 1040 -c 1 -i 23 -a 1 -x {0.0 4.0 9 ------- null}
- -t 6.80002416 -s 2 -d 3 -p tcp -e 1040 -c 1 -i 22 -a 1 -x {0.0 4.0 8 ------- null}
h -t 6.80002416 -s 2 -d 3 -p tcp -e 1040 -c 1 -i 22 -a 1 -x {0.0 4.0 -1 ------- null}
r -t 6.80002624 -s 0 -d 2 -p tcp -e 1040 -c 1 -i 24 -a 1 -x {0.0 4.0 10 ------- null}
+ -t 6.80002624 -s 2 -d 3 -p tcp -e 1040 -c 1 -i 24 -a 1 -x {0.0 4.0 10 ------- null}
r -t 6.80002832 -s 0 -d 2 -p tcp -e 1040 -c 1 -i 25 -a 1 -x {0.0 4.0 11 ------- null}
+ -t 6.80002832 -s 2 -d 3 -p tcp -e 1040 -c 1 -i 25 -a 1 -x {0.0 4.0 11 ------- null}
- -t 6.80002832 -s 2 -d 3 -p tcp -e 1040 -c 1 -i 23 -a 1 -x {0.0 4.0 9 ------- null}
h -t 6.80002832 -s 2 -d 3 -p tcp -e 1040 -c 1 -i 23 -a 1 -x {0.0 4.0 -1 ------- null}
r -t 6.8000304 -s 0 -d 2 -p tcp -e 1040 -c 1 -i 26 -a 1 -x {0.0 4.0 12 ------- null}
+ -t 6.8000304 -s 2 -d 3 -p tcp -e 1040 -c 1 -i 26 -a 1 -x {0.0 4.0 12 ------- null}
r -t 6.80003248 -s 0 -d 2 -p tcp -e 1040 -c 1 -i 27 -a 1 -x {0.0 4.0 13 ------- null}
+ -t 6.80003248 -s 2 -d 3 -p tcp -e 1040 -c 1 -i 27 -a 1 -x {0.0 4.0 13 ------- null}
- -t 6.80003248 -s 2 -d 3 -p tcp -e 1040 -c 1 -i 24 -a 1 -x {0.0 4.0 10 ------- null}
h -t 6.80003248 -s 2 -d 3 -p tcp -e 1040 -c 1 -i 24 -a 1 -x {0.0 4.0 -1 ------- null}
r -t 6.80003456 -s 0 -d 2 -p tcp -e 1040 -c 1 -i 28 -a 1 -x {0.0 4.0 14 ------- null}
+ -t 6.80003456 -s 2 -d 3 -p tcp -e 1040 -c 1 -i 28 -a 1 -x {0.0 4.0 14 ------- null}
- -t 6.80003664 -s 2 -d 3 -p tcp -e 1040 -c 1 -i 25 -a 1 -x {0.0 4.0 11 ------- null}
h -t 6.80003664 -s 2 -d 3 -p tcp -e 1040 -c 1 -i 25 -a 1 -x {0.0 4.0 -1 ------- null}
- -t 6.8000408 -s 2 -d 3 -p tcp -e 1040 -c 1 -i 26 -a 1 -x {0.0 4.0 12 ------- null}
h -t 6.8000408 -s 2 -d 3 -p tcp -e 1040 -c 1 -i 26 -a 1 -x {0.0 4.0 -1 ------- null}
- -t 6.80004496 -s 2 -d 3 -p tcp -e 1040 -c 1 -i 27 -a 1 -x {0.0 4.0 13 ------- null}
h -t 6.80004496 -s 2 -d 3 -p tcp -e 1040 -c 1 -i 27 -a 1 -x {0.0 4.0 -1 ------- null}
- -t 6.80004912 -s 2 -d 3 -p tcp -e 1040 -c 1 -i 28 -a 1 -x {0.0 4.0 14 ------- null}
h -t 6.80004912 -s 2 -d 3 -p tcp -e 1040 -c 1 -i 28 -a 1 -x {0.0 4.0 -1 ------- null}
r -t 6.85002416 -s 2 -d 3 -p tcp -e 1040 -c 1 -i 21 -a 1 -x {0.0 4.0 7 ------- null}
+ -t 6.85002416 -s 3 -d 4 -p tcp -e 1040 -c 1 -i 21 -a 1 -x {0.0 4.0 7 ------- null}
- -t 6.85002416 -s 3 -d 4 -p tcp -e 1040 -c 1 -i 21 -a 1 -x {0.0 4.0 7 ------- null}
h -t 6.85002416 -s 3 -d 4 -p tcp -e 1040 -c 1 -i 21 -a 1 -x {0.0 4.0 -1 ------- null}
r -t 6.85002832 -s 2 -d 3 -p tcp -e 1040 -c 1 -i 22 -a 1 -x {0.0 4.0 8 ------- null}
+ -t 6.85002832 -s 3 -d 4 -p tcp -e 1040 -c 1 -i 22 -a 1 -x {0.0 4.0 8 ------- null}
- -t 6.85002832 -s 3 -d 4 -p tcp -e 1040 -c 1 -i 22 -a 1 -x {0.0 4.0 8 ------- null}
h -t 6.85002832 -s 3 -d 4 -p tcp -e 1040 -c 1 -i 22 -a 1 -x {0.0 4.0 -1 ------- null}
r -t 6.85003248 -s 2 -d 3 -p tcp -e 1040 -c 1 -i 23 -a 1 -x {0.0 4.0 9 ------- null}
+ -t 6.85003248 -s 3 -d 4 -p tcp -e 1040 -c 1 -i 23 -a 1 -x {0.0 4.0 9 ------- null}
- -t 6.85003248 -s 3 -d 4 -p tcp -e 1040 -c 1 -i 23 -a 1 -x {0.0 4.0 9 ------- null}
h -t 6.85003248 -s 3 -d 4 -p tcp -e 1040 -c 1 -i 23 -a 1 -x {0.0 4.0 -1 ------- null}
r -t 6.85003664 -s 2 -d 3 -p tcp -e 1040 -c 1 -i 24 -a 1 -x {0.0 4.0 10 ------- null}
+ -t 6.85003664 -s 3 -d 4 -p tcp -e 1040 -c 1 -i 24 -a 1 -x {0.0 4.0 10 ------- null}
- -t 6.85003664 -s 3 -d 4 -p tcp -e 1040 -c 1 -i 24 -a 1 -x {0.0 4.0 10 ------- null}
h -t 6.85003664 -s 3 -d 4 -p tcp -e 1040 -c 1 -i 24 -a 1 -x {0.0 4.0 -1 ------- null}
r -t 6.8500408 -s 2 -d 3 -p tcp -e 1040 -c 1 -i 25 -a 1 -x {0.0 4.0 11 ------- null}
+ -t 6.8500408 -s 3 -d 4 -p tcp -e 1040 -c 1 -i 25 -a 1 -x {0.0 4.0 11 ------- null}
- -t 6.8500408 -s 3 -d 4 -p tcp -e 1040 -c 1 -i 25 -a 1 -x {0.0 4.0 11 ------- null}
h -t 6.8500408 -s 3 -d 4 -p tcp -e 1040 -c 1 -i 25 -a 1 -x {0.0 4.0 -1 ------- null}
r -t 6.85004496 -s 2 -d 3 -p tcp -e 1040 -c 1 -i 26 -a 1 -x {0.0 4.0 12 ------- null}
+ -t 6.85004496 -s 3 -d 4 -p tcp -e 1040 -c 1 -i 26 -a 1 -x {0.0 4.0 12 ------- null}
- -t 6.85004496 -s 3 -d 4 -p tcp -e 1040 -c 1 -i 26 -a 1 -x {0.0 4.0 12 ------- null}
h -t 6.85004496 -s 3 -d 4 -p tcp -e 1040 -c 1 -i 26 -a 1 -x {0.0 4.0 -1 ------- null}
r -t 6.85004912 -s 2 -d 3 -p tcp -e 1040 -c 1 -i 27 -a 1 -x {0.0 4.0 13 ------- null}
+ -t 6.85004912 -s 3 -d 4 -p tcp -e 1040 -c 1 -i 27 -a 1 -x {0.0 4.0 13 ------- null}
- -t 6.85004912 -s 3 -d 4 -p tcp -e 1040 -c 1 -i 27 -a 1 -x {0.0 4.0 13 ------- null}
h -t 6.85004912 -s 3 -d 4 -p tcp -e 1040 -c 1 -i 27 -a 1 -x {0.0 4.0 -1 ------- null}
r -t 6.85005328 -s 2 -d 3 -p tcp -e 1040 -c 1 -i 28 -a 1 -x {0.0 4.0 14 ------- null}
+ -t 6.85005328 -s 3 -d 4 -p tcp -e 1040 -c 1 -i 28 -a 1 -x {0.0 4.0 14 ------- null}
- -t 6.85005328 -s 3 -d 4 -p tcp -e 1040 -c 1 -i 28 -a 1 -x {0.0 4.0 14 ------- null}
h -t 6.85005328 -s 3 -d 4 -p tcp -e 1040 -c 1 -i 28 -a 1 -x {0.0 4.0 -1 ------- null}
r -t 7.10000272 -s 1 -d 2 -p tcp -e 1040 -c 2 -i 20 -a 2 -x {1.0 5.0 2 ------- null}
+ -t 7.10000272 -s 2 -d 3 -p tcp -e 1040 -c 2 -i 20 -a 2 -x {1.0 5.0 2 ------- null}
- -t 7.10000272 -s 2 -d 3 -p tcp -e 1040 -c 2 -i 20 -a 2 -x {1.0 5.0 2 ------- null}
h -t 7.10000272 -s 2 -d 3 -p tcp -e 1040 -c 2 -i 20 -a 2 -x {1.0 5.0 -1 ------- null}
r -t 7.15000688 -s 2 -d 3 -p tcp -e 1040 -c 2 -i 20 -a 2 -x {1.0 5.0 2 ------- null}
+ -t 7.15000688 -s 3 -d 5 -p tcp -e 1040 -c 2 -i 20 -a 2 -x {1.0 5.0 2 ------- null}
- -t 7.15000688 -s 3 -d 5 -p tcp -e 1040 -c 2 -i 20 -a 2 -x {1.0 5.0 2 ------- null}
h -t 7.15000688 -s 3 -d 5 -p tcp -e 1040 -c 2 -i 20 -a 2 -x {1.0 5.0 -1 ------- null}
r -t 7.35002624 -s 3 -d 4 -p tcp -e 1040 -c 1 -i 21 -a 1 -x {0.0 4.0 7 ------- null}
+ -t 7.35002624 -s 4 -d 3 -p ack -e 40 -c 1 -i 30 -a 1 -x {4.0 0.0 7 ------- null}
- -t 7.35002624 -s 4 -d 3 -p ack -e 40 -c 1 -i 30 -a 1 -x {4.0 0.0 7 ------- null}
h -t 7.35002624 -s 4 -d 3 -p ack -e 40 -c 1 -i 30 -a 1 -x {4.0 0.0 -1 ------- null}
r -t 7.3500304 -s 3 -d 4 -p tcp -e 1040 -c 1 -i 22 -a 1 -x {0.0 4.0 8 ------- null}
+ -t 7.3500304 -s 4 -d 3 -p ack -e 40 -c 1 -i 31 -a 1 -x {4.0 0.0 8 ------- null}
- -t 7.3500304 -s 4 -d 3 -p ack -e 40 -c 1 -i 31 -a 1 -x {4.0 0.0 8 ------- null}