V -t * -v 1.0a5 -a 0
A -t * -n 1 -p 0 -o 0x7fffffff -c 30 -a 1
A -t * -h 1 -m 1073741823 -s 0
c -t * -i 1 -n Blue
c -t * -i 2 -n Red
n -t * -a 4 -s 4 -S UP -v circle -c black -i black
n -t * -a 0 -s 0 -S UP -v circle -c black -i black
n -t * -a 5 -s 5 -S UP -v circle -c black -i black
n -t * -a 1 -s 1 -S UP -v circle -c black -i black
n -t * -a 2 -s 2 -S UP -v circle -c black -i black
n -t * -a 3 -s 3 -S UP -v circle -c black -i black
l -t * -s 0 -d 2 -S UP -r 4000000000 -D 0.5 -c black -o right-down
l -t * -s 1 -d 2 -S UP -r 4000000000 -D 0.80000000000000004 -c black -o right-up
l -t * -s 2 -d 3 -S UP -r 2000000000 -D 0.050000000000000003 -c black -o right
l -t * -s 3 -d 4 -S UP -r 4000000000 -D 0.5 -c black -o right-up
l -t * -s 3 -d 5 -S UP -r 4000000000 -D 0.80000000000000004 -c black -o right-down
+ -t 0 -s 1 -d 2 -p tcp -e 1000 -c 2 -i 0 -a 2 -x {1.0 5.0 0 ------- null}
- -t 0 -s 1 -d 2 -p tcp -e 1000 -c 2 -i 0 -a 2 -x {1.0 5.0 0 ------- null}
h -t 0 -s 1 -d 2 -p tcp -e 1000 -c 2 -i 0 -a 2 -x {1.0 5.0 -1 ------- null}
+ -t 0 -s 0 -d 2 -p tcp -e 1000 -c 1 -i 1 -a 1 -x {0.0 4.0 0 ------- null}
- -t 0 -s 0 -d 2 -p tcp -e 1000 -c 1 -i 1 -a 1 -x {0.0 4.0 0 ------- null}
h -t 0 -s 0 -d 2 -p tcp -e 1000 -c 1 -i 1 -a 1 -x {0.0 4.0 -1 ------- null}
r -t 0.500002 -s 0 -d 2 -p tcp -e 1000 -c 1 -i 1 -a 1 -x {0.0 4.0 0 ------- null}
+ -t 0.500002 -s 2 -d 3 -p tcp -e 1000 -c 1 -i 1 -a 1 -x {0.0 4.0 0 ------- null}
- -t 0.500002 -s 2 -d 3 -p tcp -e 1000 -c 1 -i 1 -a 1 -x {0.0 4.0 0 ------- null}
h -t 0.500002 -s 2 -d 3 -p tcp -e 1000 -c 1 -i 1 -a 1 -x {0.0 4.0 -1 ------- null}
r -t 0.550006 -s 2 -d 3 -p tcp -e 1000 -c 1 -i 1 -a 1 -x {0.0 4.0 0 ------- null}
+ -t 0.550006 -s 3 -d 4 -p tcp -e 1000 -c 1 -i 1 -a 1 -x {0.0 4.0 0 ------- null}
- -t 0.550006 -s 3 -d 4 -p tcp -e 1000 -c 1 -i 1 -a 1 -x {0.0 4.0 0 ------- null}
h -t 0.550006 -s 3 -d 4 -p tcp -e 1000 -c 1 -i 1 -a 1 -x {0.0 4.0 -1 ------- null}
r -t 0.800002 -s 1 -d 2 -p tcp -e 1000 -c 2 -i 0 -a 2 -x {1.0 5.0 0 ------- null}
+ -t 0.800002 -s 2 -d 3 -p tcp -e 1000 -c 2 -i 0 -a 2 -x {1.0 5.0 0 ------- null}
- -t 0.800002 -s 2 -d 3 -p tcp -e 1000 -c 2 -i 0 -a 2 -x {1.0 5.0 0 ------- null}
h -t 0.800002 -s 2 -d 3 -p tcp -e 1000 -c 2 -i 0 -a 2 -x {1.0 5.0 -1 ------- null}
r -t 0.850006 -s 2 -d 3 -p tcp -e 1000 -c 2 -i 0 -a 2 -x {1.0 5.0 0 ------- null}
+ -t 0.850006 -s 3 -d 5 -p tcp -e 1000 -c 2 -i 0 -a 2 -x {1.0 5.0 0 ------- null}
- -t 0.850006 -s 3 -d 5 -p tcp -e 1000 -c 2 -i 0 -a 2 -x {1.0 5.0 0 ------- null}
h -t 0.850006 -s 3 -d 5 -p tcp -e 1000 -c 2 -i 0 -a 2 -x {1.0 5.0 -1 ------- null}
r -t 1.050008 -s 3 -d 4 -p tcp -e 1000 -c 1 -i 1 -a 1 -x {0.0 4.0 0 ------- null}
+ -t 1.050008 -s 4 -d 3 -p ack -e 40 -c 1 -i 2 -a 1 -x {4.0 0.0 0 ------- null}
- -t 1.050008 -s 4 -d 3 -p ack -e 40 -c 1 -i 2 -a 1 -x {4.0 0.0 0 ------- null}
h -t 1.050008 -s 4 -d 3 -p ack -e 40 -c 1 -i 2 -a 1 -x {4.0 0.0 -1 ------- null}
r -t 1.55000808 -s 4 -d 3 -p ack -e 40 -c 1 -i 2 -a 1 -x {4.0 0.0 0 ------- null}
+ -t 1.55000808 -s 3 -d 2 -p ack -e 40 -c 1 -i 2 -a 1 -x {4.0 0.0 0 ------- null}
- -t 1.55000808 -s 3 -d 2 -p ack -e 40 -c 1 -i 2 -a 1 -x {4.0 0.0 0 ------- null}
h -t 1.55000808 -s 3 -d 2 -p ack -e 40 -c 1 -i 2 -a 1 -x {4.0 0.0 -1 ------- null}
r -t 1.60000824 -s 3 -d 2 -p ack -e 40 -c 1 -i 2 -a 1 -x {4.0 0.0 0 ------- null}
+ -t 1.60000824 -s 2 -d 0 -p ack -e 40 -c 1 -i 2 -a 1 -x {4.0 0.0 0 ------- null}
- -t 1.60000824 -s 2 -d 0 -p ack -e 40 -c 1 -i 2 -a 1 -x {4.0 0.0 0 ------- null}
h -t 1.60000824 -s 2 -d 0 -p ack -e 40 -c 1 -i 2 -a 1 -x {4.0 0.0 -1 ------- null}
r -t 1.650008 -s 3 -d 5 -p tcp -e 1000 -c 2 -i 0 -a 2 -x {1.0 5.0 0 ------- null}
+ -t 1.650008 -s 5 -d 3 -p ack -e 40 -c 2 -i 3 -a 2 -x {5.0 1.0 0 ------- null}
- -t 1.650008 -s 5 -d 3 -p ack -e 40 -c 2 -i 3 -a 2 -x {5.0 1.0 0 ------- null}
h -t 1.650008 -s 5 -d 3 -p ack -e 40 -c 2 -i 3 -a 2 -x {5.0 1.0 -1 ------- null}
r -t 2.10000832 -s 2 -d 0 -p ack -e 40 -c 1 -i 2 -a 1 -x {4.0 0.0 0 ------- null}
+ -t 2.10000832 -s 0 -d 2 -p tcp -e 1000 -c 1 -i 4 -a 1 -x {0.0 4.0 1 ------- null}
- -t 2.10000832 -s 0 -d 2 -p tcp -e 1000 -c 1 -i 4 -a 1 -x {0.0 4.0 1 ------- null}
h -t 2.10000832 -s 0 -d 2 -p tcp -e 1000 -c 1 -i 4 -a 1 -x {0.0 4.0 -1 ------- null}
r -t 2.45000808 -s 5 -d 3 -p ack -e 40 -c 2 -i 3 -a 2 -x {5.0 1.0 0 ------- null}
+ -t 2.45000808 -s 3 -d 2 -p ack -e 40 -c 2 -i 3 -a 2 -x {5.0 1.0 0 ------- null}
- -t 2.45000808 -s 3 -d 2 -p ack -e 40 -c 2 -i 3 -a 2 -x {5.0 1.0 0 ------- null}
h -t 2.45000808 -s 3 -d 2 -p ack -e 40 -c 2 -i 3 -a 2 -x {5.0 1.0 -1 ------- null}
r -t 2.50000824 -s 3 -d 2 -p ack -e 40 -c 2 -i 3 -a 2 -x {5.0 1.0 0 ------- null}
+ -t 2.50000824 -s 2 -d 1 -p ack -e 40 -c 2 -i 3 -a 2 -x {5.0 1.0 0 ------- null}
- -t 2.50000824 -s 2 -d 1 -p ack -e 40 -c 2 -i 3 -a 2 -x {5.0 1.0 0 ------- null}
h -t 2.50000824 -s 2 -d 1 -p ack -e 40 -c 2 -i 3 -a 2 -x {5.0 1.0 -1 ------- null}
r -t 2.60001032 -s 0 -d 2 -p tcp -e 1000 -c 1 -i 4 -a 1 -x {0.0 4.0 1 ------- null}
+ -t 2.60001032 -s 2 -d 3 -p tcp -e 1000 -c 1 -i 4 -a 1 -x {0.0 4.0 1 ------- null}
- -t 2.60001032 -s 2 -d 3 -p tcp -e 1000 -c 1 -i 4 -a 1 -x {0.0 4.0 1 ------- null}
h -t 2.60001032 -s 2 -d 3 -p tcp -e 1000 -c 1 -i 4 -a 1 -x {0.0 4.0 -1 ------- null}
r -t 2.65001432 -s 2 -d 3 -p tcp -e 1000 -c 1 -i 4 -a 1 -x {0.0 4.0 1 ------- null}
+ -t 2.65001432 -s 3 -d 4 -p tcp -e 1000 -c 1 -i 4 -a 1 -x {0.0 4.0 1 ------- null}
- -t 2.65001432 -s 3 -d 4 -p tcp -e 1000 -c 1 -i 4 -a 1 -x {0.0 4.0 1 ------- null}
h -t 2.65001432 -s 3 -d 4 -p tcp -e 1000 -c 1 -i 4 -a 1 -x {0.0 4.0 -1 ------- null}
+ -t 3 -s 1 -d 2 -p tcp -e 1000 -c 2 -i 5 -a 2 -x {1.0 5.0 0 ------- null}
- -t 3 -s 1 -d 2 -p tcp -e 1000 -c 2 -i 5 -a 2 -x {1.0 5.0 0 ------- null}
h -t 3 -s 1 -d 2 -p tcp -e 1000 -c 2 -i 5 -a 2 -x {1.0 5.0 -1 ------- null}
+ -t 3 -s 1 -d 2 -p tcp -e 1000 -c 2 -i 6 -a 2 -x {1.0 5.0 1 ------- null}
- -t 3.000002 -s 1 -d 2 -p tcp -e 1000 -c 2 -i 6 -a 2 -x {1.0 5.0 1 ------- null}
h -t 3.000002 -s 1 -d 2 -p tcp -e 1000 -c 2 -i 6 -a 2 -x {1.0 5.0 -1 ------- null}
r -t 3.15001632 -s 3 -d 4 -p tcp -e 1000 -c 1 -i 4 -a 1 -x {0.0 4.0 1 ------- null}
+ -t 3.15001632 -s 4 -d 3 -p ack -e 40 -c 1 -i 7 -a 1 -x {4.0 0.0 1 ------- null}
- -t 3.15001632 -s 4 -d 3 -p ack -e 40 -c 1 -i 7 -a 1 -x {4.0 0.0 1 ------- null}
h -t 3.15001632 -s 4 -d 3 -p ack -e 40 -c 1 -i 7 -a 1 -x {4.0 0.0 -1 ------- null}
r -t 3.30000832 -s 2 -d 1 -p ack -e 40 -c 2 -i 3 -a 2 -x {5.0 1.0 0 ------- null}
+ -t 3.30000832 -s 1 -d 2 -p tcp -e 1000 -c 2 -i 8 -a 2 -x {1.0 5.0 2 ------- null}
- -t 3.30000832 -s 1 -d 2 -p tcp -e 1000 -c 2 -i 8 -a 2 -x {1.0 5.0 2 ------- null}
h -t 3.30000832 -s 1 -d 2 -p tcp -e 1000 -c 2 -i 8 -a 2 -x {1.0 5.0 -1 ------- null}
r -t 3.6500164 -s 4 -d 3 -p ack -e 40 -c 1 -i 7 -a 1 -x {4.0 0.0 1 ------- null}
+ -t 3.6500164 -s 3 -d 2 -p ack -e 40 -c 1 -i 7 -a 1 -x {4.0 0.0 1 ------- null}
- -t 3.6500164 -s 3 -d 2 -p ack -e 40 -c 1 -i 7 -a 1 -x {4.0 0.0 1 ------- null}
h -t 3.6500164 -s 3 -d 2 -p ack -e 40 -c 1 -i 7 -a 1 -x {4.0 0.0 -1 ------- null}
r -t 3.70001656 -s 3 -d 2 -p ack -e 40 -c 1 -i 7 -a 1 -x {4.0 0.0 1 ------- null}
+ -t 3.70001656 -s 2 -d 0 -p ack -e 40 -c 1 -i 7 -a 1 -x {4.0 0.0 1 ------- null}
- -t 3.70001656 -s 2 -d 0 -p ack -e 40 -c 1 -i 7 -a 1 -x {4.0 0.0 1 ------- null}
h -t 3.70001656 -s 2 -d 0 -p ack -e 40 -c 1 -i 7 -a 1 -x {4.0 0.0 -1 ------- null}
r -t 3.800002 -s 1 -d 2 -p tcp -e 1000 -c 2 -i 5 -a 2 -x {1.0 5.0 0 ------- null}
+ -t 3.800002 -s 2 -d 3 -p tcp -e 1000 -c 2 -i 5 -a 2 -x {1.0 5.0 0 ------- null}
- -t 3.800002 -s 2 -d 3 -p tcp -e 1000 -c 2 -i 5 -a 2 -x {1.0 5.0 0 ------- null}
h -t 3.800002 -s 2 -d 3 -p tcp -e 1000 -c 2 -i 5 -a 2 -x {1.0 5.0 -1 ------- null}
r -t 3.800004 -s 1 -d 2 -p tcp -e 1000 -c 2 -i 6 -a 2 -x {1.0 5.0 1 ------- null}
+ -t 3.800004 -s 2 -d 3 -p tcp -e 1000 -c 2 -i 6 -a 2 -x {1.0 5.0 1 ------- null}
- -t 3.800006 -s 2 -d 3 -p tcp -e 1000 -c 2 -i 6 -a 2 -x {1.0 5.0 1 ------- null}
h -t 3.800006 -s 2 -d 3 -p tcp -e 1000 -c 2 -i 6 -a 2 -x {1.0 5.0 -1 ------- null}
r -t 3.850006 -s 2 -d 3 -p tcp -e 1000 -c 2 -i 5 -a 2 -x {1.0 5.0 0 ------- null}
+ -t 3.850006 -s 3 -d 5 -p tcp -e 1000 -c 2 -i 5 -a 2 -x {1.0 5.0 0 ------- null}
- -t 3.850006 -s 3 -d 5 -p tcp -e 1000 -c 2 -i 5 -a 2 -x {1.0 5.0 0 ------- null}
h -t 3.850006 -s 3 -d 5 -p tcp -e 1000 -c 2 -i 5 -a 2 -x {1.0 5.0 -1 ------- null}
r -t 3.85001 -s 2 -d 3 -p tcp -e 1000 -c 2 -i 6 -a 2 -x {1.0 5.0 1 ------- null}
+ -t 3.85001 -s 3 -d 5 -p tcp -e 1000 -c 2 -i 6 -a 2 -x {1.0 5.0 1 ------- null}
- -t 3.85001 -s 3 -d 5 -p tcp -e 1000 -c 2 -i 6 -a 2 -x {1.0 5.0 1 ------- null}
h -t 3.85001 -s 3 -d 5 -p tcp -e 1000 -c 2 -i 6 -a 2 -x {1.0 5.0 -1 ------- null}
r -t 4.10001032 -s 1 -d 2 -p tcp -e 1000 -c 2 -i 8 -a 2 -x {1.0 5.0 2 ------- null}
+ -t 4.10001032 -s 2 -d 3 -p tcp -e 1000 -c 2 -i 8 -a 2 -x {1.0 5.0 2 ------- null}
- -t 4.10001032 -s 2 -d 3 -p tcp -e 1000 -c 2 -i 8 -a 2 -x {1.0 5.0 2 ------- null}
h -t 4.10001032 -s 2 -d 3 -p tcp -e 1000 -c 2 -i 8 -a 2 -x {1.0 5.0 -1 ------- null}
r -t 4.15001432 -s 2 -d 3 -p tcp -e 1000 -c 2 -i 8 -a 2 -x {1.0 5.0 2 ------- null}
+ -t 4.15001432 -s 3 -d 5 -p tcp -e 1000 -c 2 -i 8 -a 2 -x {1.0 5.0 2 ------- null}
- -t 4.15001432 -s 3 -d 5 -p tcp -e 1000 -c 2 -i 8 -a 2 -x {1.0 5.0 2 ------- null}
h -t 4.15001432 -s 3 -d 5 -p tcp -e 1000 -c 2 -i 8 -a 2 -x {1.0 5.0 -1 ------- null}
r -t 4.20001664 -s 2 -d 0 -p ack -e 40 -c 1 -i 7 -a 1 -x {4.0 0.0 1 ------- null}
+ -t 4.20001664 -s 0 -d 2 -p tcp -e 1000 -c 1 -i 9 -a 1 -x {0.0 4.0 2 ------- null}
- -t 4.20001664 -s 0 -d 2 -p tcp -e 1000 -c 1 -i 9 -a 1 -x {0.0 4.0 2 ------- null}
h -t 4.20001664 -s 0 -d 2 -p tcp -e 1000 -c 1 -i 9 -a 1 -x {0.0 4.0 -1 ------- null}
+ -t 4.20001664 -s 0 -d 2 -p tcp -e 1000 -c 1 -i 10 -a 1 -x {0.0 4.0 3 ------- null}
+ -t 4.20001664 -s 0 -d 2 -p tcp -e 1000 -c 1 -i 11 -a 1 -x {0.0 4.0 4 ------- null}
- -t 4.20001864 -s 0 -d 2 -p tcp -e 1000 -c 1 -i 10 -a 1 -x {0.0 4.0 3 ------- null}
h -t 4.20001864 -s 0 -d 2 -p tcp -e 1000 -c 1 -i 10 -a 1 -x {0.0 4.0 -1 ------- null}
- -t 4.20002064 -s 0 -d 2 -p tcp -e 1000 -c 1 -i 11 -a 1 -x {0.0 4.0 4 ------- null}
h -t 4.20002064 -s 0 -d 2 -p tcp -e 1000 -c 1 -i 11 -a 1 -x {0.0 4.0 -1 ------- null}
r -t 4.650008 -s 3 -d 5 -p tcp -e 1000 -c 2 -i 5 -a 2 -x {1.0 5.0 0 ------- null}
+ -t 4.650008 -s 5 -d 3 -p ack -e 40 -c 2 -i 12 -a 2 -x {5.0 1.0 0 ------- null}
- -t 4.650008 -s 5 -d 3 -p ack -e 40 -c 2 -i 12 -a 2 -x {5.0 1.0 0 ------- null}
h -t 4.650008 -s 5 -d 3 -p ack -e 40 -c 2 -i 12 -a 2 -x {5.0 1.0 -1 ------- null}
r -t 4.650012 -s 3 -d 5 -p tcp -e 1000 -c 2 -i 6 -a 2 -x {1.0 5.0 1 ------- null}
+ -t 4.650012 -s 5 -d 3 -p ack -e 40 -c 2 -i 13 -a 2 -x {5.0 1.0 1 ------- null}
- -t 4.650012 -s 5 -d 3 -p ack -e 40 -c 2 -i 13 -a 2 -x {5.0 1.0 1 ------- null}
h -t 4.650012 -s 5 -d 3 -p ack -e 40 -c 2 -i 13 -a 2 -x {5.0 1.0 -1 ------- null}
r -t 4.70001864 -s 0 -d 2 -p tcp -e 1000 -c 1 -i 9 -a 1 -x {0.0 4.0 2 ------- null}
+ -t 4.70001864 -s 2 -d 3 -p tcp -e 1000 -c 1 -i 9 -a 1 -x {0.0 4.0 2 ------- null}
- -t 4.70001864 -s 2 -d 3 -p tcp -e 1000 -c 1 -i 9 -a 1 -x {0.0 4.0 2 ------- null}
h -t 4.70001864 -s 2 -d 3 -p tcp -e 1000 -c 1 -i 9 -a 1 -x {0.0 4.0 -1 ------- null}
r -t 4.70002064 -s 0 -d 2 -p tcp -e 1000 -c 1 -i 10 -a 1 -x {0.0 4.0 3 ------- null}
+ -t 4.70002064 -s 2 -d 3 -p tcp -e 1000 -c 1 -i 10 -a 1 -x {0.0 4.0 3 ------- null}
- -t 4.70002264 -s 2 -d 3 -p tcp -e 1000 -c 1 -i 10 -a 1 -x {0.0 4.0 3 ------- null}
h -t 4.70002264 -s 2 -d 3 -p tcp -e 1000 -c 1 -i 10 -a 1 -x {0.0 4.0 -1 ------- null}
r -t 4.70002264 -s 0 -d 2 -p tcp -e 1000 -c 1 -i 11 -a 1 -x {0.0 4.0 4 ------- null}
+ -t 4.70002264 -s 2 -d 3 -p tcp -e 1000 -c 1 -i 11 -a 1 -x {0.0 4.0 4 ------- null}
- -t 4.70002664 -s 2 -d 3 -p tcp -e 1000 -c 1 -i 11 -a 1 -x {0.0 4.0 4 ------- null}
h -t 4.70002664 -s 2 -d 3 -p tcp -e 1000 -c 1 -i 11 -a 1 -x {0.0 4.0 -1 ------- null}
r -t 4.75002264 -s 2 -d 3 -p tcp -e 1000 -c 1 -i 9 -a 1 -x {0.0 4.0 2 ------- null}
+ -t 4.75002264 -s 3 -d 4 -p tcp -e 1000 -c 1 -i 9 -a 1 -x {0.0 4.0 2 ------- null}
- -t 4.75002264 -s 3 -d 4 -p tcp -e 1000 -c 1 -i 9 -a 1 -x {0.0 4.0 2 ------- null}
h -t 4.75002264 -s 3 -d 4 -p tcp -e 1000 -c 1 -i 9 -a 1 -x {0.0 4.0 -1 ------- null}
r -t 4.75002664 -s 2 -d 3 -p tcp -e 1000 -c 1 -i 10 -a 1 -x {0.0 4.0 3 ------- null}
+ -t 4.75002664 -s 3 -d 4 -p tcp -e 1000 -c 1 -i 10 -a 1 -x {0.0 4.0 3 ------- null}
- -t 4.75002664 -s 3 -d 4 -p tcp -e 1000 -c 1 -i 10 -a 1 -x {0.0 4.0 3 ------- null}
h -t 4.75002664 -s 3 -d 4 -p tcp -e 1000 -c 1 -i 10 -a 1 -x {0.0 4.0 -1 ------- null}
r -t 4.75003064 -s 2 -d 3 -p tcp -e 1000 -c 1 -i 11 -a 1 -x {0.0 4.0 4 ------- null}
+ -t 4.75003064 -s 3 -d 4 -p tcp -e 1000 -c 1 -i 11 -a 1 -x {0.0 4.0 4 ------- null}
- -t 4.75003064 -s 3 -d 4 -p tcp -e 1000 -c 1 -i 11 -a 1 -x {0.0 4.0 4 ------- null}
h -t 4.75003064 -s 3 -d 4 -p tcp -e 1000 -c 1 -i 11 -a 1 -x {0.0 4.0 -1 ------- null}
r -t 4.95001632 -s 3 -d 5 -p tcp -e 1000 -c 2 -i 8 -a 2 -x {1.0 5.0 2 ------- null}
+ -t 4.95001632 -s 5 -d 3 -p ack -e 40 -c 2 -i 14 -a 2 -x {5.0 1.0 2 ------- null}
- -t 4.95001632 -s 5 -d 3 -p ack -e 40 -c 2 -i 14 -a 2 -x {5.0 1.0 2 ------- null}
h -t 4.95001632 -s 5 -d 3 -p ack -e 40 -c 2 -i 14 -a 2 -x {5.0 1.0 -1 ------- null}
r -t 5.25002464 -s 3 -d 4 -p tcp -e 1000 -c 1 -i 9 -a 1 -x {0.0 4.0 2 ------- null}
+ -t 5.25002464 -s 4 -d 3 -p ack -e 40 -c 1 -i 15 -a 1 -x {4.0 0.0 2 ------- null}
- -t 5.25002464 -s 4 -d 3 -p ack -e 40 -c 1 -i 15 -a 1 -x {4.0 0.0 2 ------- null}
h -t 5.25002464 -s 4 -d 3 -p ack -e 40 -c 1 -i 15 -a 1 -x {4.0 0.0 -1 ------- null}
r -t 5.25002864 -s 3 -d 4 -p tcp -e 1000 -c 1 -i 10 -a 1 -x {0.0 4.0 3 ------- null}
+ -t 5.25002864 -s 4 -d 3 -p ack -e 40 -c 1 -i 16 -a 1 -x {4.0 0.0 3 ------- null}
- -t 5.25002864 -s 4 -d 3 -p ack -e 40 -c 1 -i 16 -a 1 -x {4.0 0.0 3 ------- null}
h -t 5.25002864 -s 4 -d 3 -p ack -e 40 -c 1 -i 16 -a 1 -x {4.0 0.0 -1 ------- null}
r -t 5.25003264 -s 3 -d 4 -p tcp -e 1000 -c 1 -i 11 -a 1 -x {0.0 4.0 4 ------- null}
+ -t 5.25003264 -s 4 -d 3 -p ack -e 40 -c 1 -i 17 -a 1 -x {4.0 0.0 4 ------- null}
- -t 5.25003264 -s 4 -d 3 -p ack -e 40 -c 1 -i 17 -a 1 -x {4.0 0.0 4 ------- null}
h -t 5.25003264 -s 4 -d 3 -p ack -e 40 -c 1 -i 17 -a 1 -x {4.0 0.0 -1 ------- null}
r -t 5.45000808 -s 5 -d 3 -p ack -e 40 -c 2 -i 12 -a 2 -x {5.0 1.0 0 ------- null}
+ -t 5.45000808 -s 3 -d 2 -p ack -e 40 -c 2 -i 12 -a 2 -x {5.0 1.0 0 ------- null}
- -t 5.45000808 -s 3 -d 2 -p ack -e 40 -c 2 -i 12 -a 2 -x {5.0 1.0 0 ------- null}
h -t 5.45000808 -s 3 -d 2 -p ack -e 40 -c 2 -i 12 -a 2 -x {5.0 1.0 -1 ------- null}
r -t 5.45001208 -s 5 -d 3 -p ack -e 40 -c 2 -i 13 -a 2 -x {5.0 1.0 1 ------- null}
+ -t 5.45001208 -s 3 -d 2 -p ack -e 40 -c 2 -i 13 -a 2 -x {5.0 1.0 1 ------- null}
- -t 5.45001208 -s 3 -d 2 -p ack -e 40 -c 2 -i 13 -a 2 -x {5.0 1.0 1 ------- null}
h -t 5.45001208 -s 3 -d 2 -p ack -e 40 -c 2 -i 13 -a 2 -x {5.0 1.0 -1 ------- null}
r -t 5.50000824 -s 3 -d 2 -p ack -e 40 -c 2 -i 12 -a 2 -x {5.0 1.0 0 ------- null}
+ -t 5.50000824 -s 2 -d 1 -p ack -e 40 -c 2 -i 12 -a 2 -x {5.0 1.0 0 ------- null}
- -t 5.50000824 -s 2 -d 1 -p ack -e 40 -c 2 -i 12 -a 2 -x {5.0 1.0 0 ------- null}
h -t 5.50000824 -s 2 -d 1 -p ack -e 40 -c 2 -i 12 -a 2 -x {5.0 1.0 -1 ------- null}
r -t 5.50001224 -s 3 -d 2 -p ack -e 40 -c 2 -i 13 -a 2 -x {5.0 1.0 1 ------- null}
+ -t 5.50001224 -s 2 -d 1 -p ack -e 40 -c 2 -i 13 -a 2 -x {5.0 1.0 1 ------- null}
- -t 5.50001224 -s 2 -d 1 -p ack -e 40 -c 2 -i 13 -a 2 -x {5.0 1.0 1 ------- null}
h -t 5.50001224 -s 2 -d 1 -p ack -e 40 -c 2 -i 13 -a 2 -x {5.0 1.0 -1 ------- null}
r -t 5.7500164 -s 5 -d 3 -p ack -e 40 -c 2 -i 14 -a 2 -x {5.0 1.0 2 ------- null}
+ -t 5.7500164 -s 3 -d 2 -p ack -e 40 -c 2 -i 14 -a 2 -x {5.0 1.0 2 ------- null}
- -t 5.7500164 -s 3 -d 2 -p ack -e 40 -c 2 -i 14 -a 2 -x {5.0 1.0 2 ------- null}
h -t 5.7500164 -s 3 -d 2 -p ack -e 40 -c 2 -i 14 -a 2 -x {5.0 1.0 -1 ------- null}
r -t 5.75002472 -s 4 -d 3 -p ack -e 40 -c 1 -i 15 -a 1 -x {4.0 0.0 2 ------- null}
+ -t 5.75002472 -s 3 -d 2 -p ack -e 40 -c 1 -i 15 -a 1 -x {4.0 0.0 2 ------- null}
- -t 5.75002472 -s 3 -d 2 -p ack -e 40 -c 1 -i 15 -a 1 -x {4.0 0.0 2 ------- null}
h -t 5.75002472 -s 3 -d 2 -p ack -e 40 -c 1 -i 15 -a 1 -x {4.0 0.0 -1 ------- null}
r -t 5.75002872 -s 4 -d 3 -p ack -e 40 -c 1 -i 16 -a 1 -x {4.0 0.0 3 ------- null}
+ -t 5.75002872 -s 3 -d 2 -p ack -e 40 -c 1 -i 16 -a 1 -x {4.0 0.0 3 ------- null}
- -t 5.75002872 -s 3 -d 2 -p ack -e 40 -c 1 -i 16 -a 1 -x {4.0 0.0 3 ------- null}
h -t 5.75002872 -s 3 -d 2 -p ack -e 40 -c 1 -i 16 -a 1 -x {4.0 0.0 -1 ------- null}
r -t 5.75003272 -s 4 -d 3 -p ack -e 40 -c 1 -i 17 -a 1 -x {4.0 0.0 4 ------- null}
+ -t 5.75003272 -s 3 -d 2 -p ack -e 40 -c 1 -i 17 -a 1 -x {4.0 0.0 4 ------- null}
- -t 5.75003272 -s 3 -d 2 -p ack -e 40 -c 1 -i 17 -a 1 -x {4.0 0.0 4 ------- null}
h -t 5.75003272 -s 3 -d 2 -p ack -e 40 -c 1 -i 17 -a 1 -x {4.0 0.0 -1 ------- null}
r -t 5.80001656 -s 3 -d 2 -p ack -e 40 -c 2 -i 14 -a 2 -x {5.0 1.0 2 ------- null}
+ -t 5.80001656 -s 2 -d 1 -p ack -e 40 -c 2 -i 14 -a 2 -x {5.0 1.0 2 ------- null}
- -t 5.80001656 -s 2 -d 1 -p ack -e 40 -c 2 -i 14 -a 2 -x {5.0 1.0 2 ------- null}
h -t 5.80001656 -s 2 -d 1 -p ack -e 40 -c 2 -i 14 -a 2 -x {5.0 1.0 -1 ------- null}
r -t 5.80002488 -s 3 -d 2 -p ack -e 40 -c 1 -i 15 -a 1 -x {4.0 0.0 2 ------- null}
+ -t 5.80002488 -s 2 -d 0 -p ack -e 40 -c 1 -i 15 -a 1 -x {4.0 0.0 2 ------- null}
- -t 5.80002488 -s 2 -d 0 -p ack -e 40 -c 1 -i 15 -a 1 -x {4.0 0.0 2 ------- null}
h -t 5.80002488 -s 2 -d 0 -p ack -e 40 -c 1 -i 15 -a 1 -x {4.0 0.0 -1 ------- null}
r -t 5.80002888 -s 3 -d 2 -p ack -e 40 -c 1 -i 16 -a 1 -x {4.0 0.0 3 ------- null}
+ -t 5.80002888 -s 2 -d 0 -p ack -e 40 -c 1 -i 16 -a 1 -x {4.0 0.0 3 ------- null}
- -t 5.80002888 -s 2 -d 0 -p ack -e 40 -c 1 -i 16 -a 1 -x {4.0 0.0 3 ------- null}
h -t 5.80002888 -s 2 -d 0 -p ack -e 40 -c 1 -i 16 -a 1 -x {4.0 0.0 -1 ------- null}
r -t 5.80003288 -s 3 -d 2 -p ack -e 40 -c 1 -i 17 -a 1 -x {4.0 0.0 4 ------- null}
+ -t 5.80003288 -s 2 -d 0 -p ack -e 40 -c 1 -i 17 -a 1 -x {4.0 0.0 4 ------- null}
- -t 5.80003288 -s 2 -d 0 -p ack -e 40 -c 1 -i 17 -a 1 -x {4.0 0.0 4 ------- null}
h -t 5.80003288 -s 2 -d 0 -p ack -e 40 -c 1 -i 17 -a 1 -x {4.0 0.0 -1 ------- null}
r -t 6.30000832 -s 2 -d 1 -p ack -e 40 -c 2 -i 12 -a 2 -x {5.0 1.0 0 ------- null}
r -t 6.30001232 -s 2 -d 1 -p ack -e 40 -c 2 -i 13 -a 2 -x {5.0 1.0 1 ------- null}
+ -t 6.30001232 -s 1 -d 2 -p tcp -e 1000 -c 2 -i 18 -a 2 -x {1.0 5.0 3 ------- null}
- -t 6.30001232 -s 1 -d 2 -p tcp -e 1000 -c 2 -i 18 -a 2 -x {1.0 5.0 3 ------- null}
h -t 6.30001232 -s 1 -d 2 -p tcp -e 1000 -c 2 -i 18 -a 2 -x {1.0 5.0 -1 ------- null}
r -t 6.30002496 -s 2 -d 0 -p ack -e 40 -c 1 -i 15 -a 1 -x {4.0 0.0 2 ------- null}
+ -t 6.30002496 -s 0 -d 2 -p tcp -e 1000 -c 1 -i 19 -a 1 -x {0.0 4.0 5 ------- null}
- -t 6.30002496 -s 0 -d 2 -p tcp -e 1000 -c 1 -i 19 -a 1 -x {0.0 4.0 5 ------- null}
h -t 6.30002496 -s 0 -d 2 -p tcp -e 1000 -c 1 -i 19 -a 1 -x {0.0 4.0 -1 ------- null}
r -t 6.30002896 -s 2 -d 0 -p ack -e 40 -c 1 -i 16 -a 1 -x {4.0 0.0 3 ------- null}
+ -t 6.30002896 -s 0 -d 2 -p tcp -e 1000 -c 1 -i 20 -a 1 -x {0.0 4.0 6 ------- null}
- -t 6.30002896 -s 0 -d 2 -p tcp -e 1000 -c 1 -i 20 -a 1 -x {0.0 4.0 6 ------- null}
h -t 6.30002896 -s 0 -d 2 -p tcp -e 1000 -c 1 -i 20 -a 1 -x {0.0 4.0 -1 ------- null}
r -t 6.30003296 -s 2 -d 0 -p ack -e 40 -c 1 -i 17 -a 1 -x {4.0 0.0 4 ------- null}
+ -t 6.30003296 -s 0 -d 2 -p tcp -e 1000 -c 1 -i 21 -a 1 -x {0.0 4.0 7 ------- null}
- -t 6.30003296 -s 0 -d 2 -p tcp -e 1000 -c 1 -i 21 -a 1 -x {0.0 4.0 7 ------- null}
h -t 6.30003296 -s 0 -d 2 -p tcp -e 1000 -c 1 -i 21 -a 1 -x {0.0 4.0 -1 ------- null}
r -t 6.60001664 -s 2 -d 1 -p ack -e 40 -c 2 -i 14 -a 2 -x {5.0 1.0 2 ------- null}
+ -t 6.60001664 -s 1 -d 2 -p tcp -e 1000 -c 2 -i 22 -a 2 -x {1.0 5.0 4 ------- null}
- -t 6.60001664 -s 1 -d 2 -p tcp -e 1000 -c 2 -i 22 -a 2 -x {1.0 5.0 4 ------- null}
h -t 6.60001664 -s 1 -d 2 -p tcp -e 1000 -c 2 -i 22 -a 2 -x {1.0 5.0 -1 ------- null}
r -t 6.80002696 -s 0 -d 2 -p tcp -e 1000 -c 1 -i 19 -a 1 -x {0.0 4.0 5 ------- null}
+ -t 6.80002696 -s 2 -d 3 -p tcp -e 1000 -c 1 -i 19 -a 1 -x {0.0 4.0 5 ------- null}
- -t 6.80002696 -s 2 -d 3 -p tcp -e 1000 -c 1 -i 19 -a 1 -x {0.0 4.0 5 ------- null}
h -t 6.80002696 -s 2 -d 3 -p tcp -e 1000 -c 1 -i 19 -a 1 -x {0.0 4.0 -1 ------- null}
r -t 6.80003096 -s 0 -d 2 -p tcp -e 1000 -c 1 -i 20 -a 1 -x {0.0 4.0 6 ------- null}
+ -t 6.80003096 -s 2 -d 3 -p tcp -e 1000 -c 1 -i 20 -a 1 -x {0.0 4.0 6 ------- null}
- -t 6.80003096 -s 2 -d 3 -p tcp -e 1000 -c 1 -i 20 -a 1 -x {0.0 4.0 6 ------- null}
h -t 6.80003096 -s 2 -d 3 -p tcp -e 1000 -c 1 -i 20 -a 1 -x {0.0 4.0 -1 ------- null}
r -t 6.80003496 -s 0 -d 2 -p tcp -e 1000 -c 1 -i 21 -a 1 -x {0.0 4.0 7 ------- null}
+ -t 6.80003496 -s 2 -d 3 -p tcp -e 1000 -c 1 -i 21 -a 1 -x {0.0 4.0 7 ------- null}
- -t 6.80003496 -s 2 -d 3 -p tcp -e 1000 -c 1 -i 21 -a 1 -x {0.0 4.0 7 ------- null}
h -t 6.80003496 -s 2 -d 3 -p tcp -e 1000 -c 1 -i 21 -a 1 -x {0.0 4.0 -1 ------- null}
r -t 6.85003096 -s 2 -d 3 -p tcp -e 1000 -c 1 -i 19 -a 1 -x {0.0 4.0 5 ------- null}
+ -t 6.85003096 -s 3 -d 4 -p tcp -e 1000 -c 1 -i 19 -a 1 -x {0.0 4.0 5 ------- null}
- -t 6.85003096 -s 3 -d 4 -p tcp -e 1000 -c 1 -i 19 -a 1 -x {0.0 4.0 5 ------- null}
h -t 6.85003096 -s 3 -d 4 -p tcp -e 1000 -c 1 -i 19 -a 1 -x {0.0 4.0 -1 ------- null}
r -t 6.85003496 -s 2 -d 3 -p tcp -e 1000 -c 1 -i 20 -a 1 -x {0.0 4.0 6 ------- null}
+ -t 6.85003496 -s 3 -d 4 -p tcp -e 1000 -c 1 -i 20 -a 1 -x {0.0 4.0 6 ------- null}
- -t 6.85003496 -s 3 -d 4 -p tcp -e 1000 -c 1 -i 20 -a 1 -x {0.0 4.0 6 ------- null}
h -t 6.85003496 -s 3 -d 4 -p tcp -e 1000 -c 1 -i 20 -a 1 -x {0.0 4.0 -1 ------- null}
r -t 6.85003896 -s 2 -d 3 -p tcp -e 1000 -c 1 -i 21 -a 1 -x {0.0 4.0 7 ------- null}
+ -t 6.85003896 -s 3 -d 4 -p tcp -e 1000 -c 1 -i 21 -a 1 -x {0.0 4.0 7 ------- null}
- -t 6.85003896 -s 3 -d 4 -p tcp -e 1000 -c 1 -i 21 -a 1 -x {0.0 4.0 7 ------- null}
h -t 6.85003896 -s 3 -d 4 -p tcp -e 1000 -c 1 -i 21 -a 1 -x {0.0 4.0 -1 ------- null}
r -t 7.10001432 -s 1 -d 2 -p tcp -e 1000 -c 2 -i 18 -a 2 -x {1.0 5.0 3 ------- null}
+ -t 7.10001432 -s 2 -d 3 -p tcp -e 1000 -c 2 -i 18 -a 2 -x {1.0 5.0 3 ------- null}
- -t 7.10001432 -s 2 -d 3 -p tcp -e 1000 -c 2 -i 18 -a 2 -x {1.0 5.0 3 ------- null}
h -t 7.10001432 -s 2 -d 3 -p tcp -e 1000 -c 2 -i 18 -a 2 -x {1.0 5.0 -1 ------- null}
r -t 7.15001832 -s 2 -d 3 -p tcp -e 1000 -c 2 -i 18 -a 2 -x {1.0 5.0 3 ------- null}
+ -t 7.15001832 -s 3 -d 5 -p tcp -e 1000 -c 2 -i 18 -a 2 -x {1.0 5.0 3 ------- null}
- -t 7.15001832 -s 3 -d 5 -p tcp -e 1000 -c 2 -i 18 -a 2 -x {1.0 5.0 3 ------- null}
h -t 7.15001832 -s 3 -d 5 -p tcp -e 1000 -c 2 -i 18 -a 2 -x {1.0 5.0 -1 ------- null}
r -t 7.35003296 -s 3 -d 4 -p tcp -e 1000 -c 1 -i 19 -a 1 -x {0.0 4.0 5 ------- null}
+ -t 7.35003296 -s 4 -d 3 -p ack -e 40 -c 1 -i 23 -a 1 -x {4.0 0.0 5 ------- null}
- -t 7.35003296 -s 4 -d 3 -p ack -e 40 -c 1 -i 23 -a 1 -x {4.0 0.0 5 ------- null}
h -t 7.35003296 -s 4 -d 3 -p ack -e 40 -c 1 -i 23 -a 1 -x {4.0 0.0 -1 ------- null}
r -t 7.35003696 -s 3 -d 4 -p tcp -e 1000 -c 1 -i 20 -a 1 -x {0.0 4.0 6 ------- null}
+ -t 7.35003696 -s 4 -d 3 -p ack -e 40 -c 1 -i 24 -a 1 -x {4.0 0.0 6 ------- null}
- -t 7.35003696 -s 4 -d 3 -p ack -e 40 -c 1 -i 24 -a 1 -x {4.0 0.0 6 ------- null}
h -t 7.35003696 -s 4 -d 3 -p ack -e 40 -c 1 -i 24 -a 1 -x {4.0 0.0 -1 ------- null}
r -t 7.35004096 -s 3 -d 4 -p tcp -e 1000 -c 1 -i 21 -a 1 -x {0.0 4.0 7 ------- null}
+ -t 7.35004096 -s 4 -d 3 -p ack -e 40 -c 1 -i 25 -a 1 -x {4.0 0.0 7 ------- null}
- -t 7.35004096 -s 4 -d 3 -p ack -e 40 -c 1 -i 25 -a 1 -x {4.0 0.0 7 ------- null}
h -t 7.35004096 -s 4 -d 3 -p ack -e 40 -c 1 -i 25 -a 1 -x {4.0 0.0 -1 ------- null}
r -t 7.40001864 -s 1 -d 2 -p tcp -e 1000 -c 2 -i 22 -a 2 -x {1.0 5.0 4 ------- null}
+ -t 7.40001864 -s 2 -d 3 -p tcp -e 1000 -c 2 -i 22 -a 2 -x {1.0 5.0 4 ------- null}
- -t 7.40001864 -s 2 -d 3 -p tcp -e 1000 -c 2 -i 22 -a 2 -x {1.0 5.0 4 ------- null}
h -t 7.40001864 -s 2 -d 3 -p tcp -e 1000 -c 2 -i 22 -a 2 -x {1.0 5.0 -1 ------- null}
r -t 7.45002264 -s 2 -d 3 -p tcp -e 1000 -c 2 -i 22 -a 2 -x {1.0 5.0 4 ------- null}
+ -t 7.45002264 -s 3 -d 5 -p tcp -e 1000 -c 2 -i 22 -a 2 -x {1.0 5.0 4 ------- null}
- -t 7.45002264 -s 3 -d 5 -p tcp -e 1000 -c 2 -i 22 -a 2 -x {1.0 5.0 4 ------- null}
h -t 7.45002264 -s 3 -d 5 -p tcp -e 1000 -c 2 -i 22 -a 2 -x {1.0 5.0 -1 ------- null}
r -t 7.85003304 -s 4 -d 3 -p ack -e 40 -c 1 -i 23 -a 1 -x {4.0 0.0 5 ------- null}
+ -t 7.85003304 -s 3 -d 2 -p ack -e 40 -c 1 -i 23 -a 1 -x {4.0 0.0 5 ------- null}
- -t 7.85003304 -s 3 -d 2 -p ack -e 40 -c 1 -i 23 -a 1 -x {4.0 0.0 5 ------- null}
h -t 7.85003304 -s 3 -d 2 -p ack -e 40 -c 1 -i 23 -a 1 -x {4.0 0.0 -1 ------- null}
r -t 7.85003704 -s 4 -d 3 -p ack -e 40 -c 1 -i 24 -a 1 -x {4.0 0.0 6 ------- null}
+ -t 7.85003704 -s 3 -d 2 -p ack -e 40 -c 1 -i 24 -a 1 -x {4.0 0.0 6 ------- null}
- -t 7.85003704 -s 3 -d 2 -p ack -e 40 -c 1 -i 24 -a 1 -x {4.0 0.0 6 ------- null}
h -t 7.85003704 -s 3 -d 2 -p ack -e 40 -c 1 -i 24 -a 1 -x {4.0 0.0 -1 ------- null}
r -t 7.85004104 -s 4 -d 3 -p ack -e 40 -c 1 -i 25 -a 1 -x {4.0 0.0 7 ------- null}
+ -t 7.85004104 -s 3 -d 2 -p ack -e 40 -c 1 -i 25 -a 1 -x {4.0 0.0 7 ------- null}
- -t 7.85004104 -s 3 -d 2 -p ack -e 40 -c 1 -i 25 -a 1 -x {4.0 0.0 7 ------- null}
h -t 7.85004104 -s 3 -d 2 -p ack -e 40 -c 1 -i 25 -a 1 -x {4.0 0.0 -1 ------- null}
r -t 7.9000332 -s 3 -d 2 -p ack -e 40 -c 1 -i 23 -a 1 -x {4.0 0.0 5 ------- null}
+ -t 7.9000332 -s 2 -d 0 -p ack -e 40 -c 1 -i 23 -a 1 -x {4.0 0.0 5 ------- null}
- -t 7.9000332 -s 2 -d 0 -p ack -e 40 -c 1 -i 23 -a 1 -x {4.0 0.0 5 ------- null}
h -t 7.9000332 -s 2 -d 0 -p ack -e 40 -c 1 -i 23 -a 1 -x {4.0 0.0 -1 ------- null}
r -t 7.9000372 -s 3 -d 2 -p ack -e 40 -c 1 -i 24 -a 1 -x {4.0 0.0 6 ------- null}
+ -t 7.9000372 -s 2 -d 0 -p ack -e 40 -c 1 -i 24 -a 1 -x {4.0 0.0 6 ------- null}
- -t 7.9000372 -s 2 -d 0 -p ack -e 40 -c 1 -i 24 -a 1 -x {4.0 0.0 6 ------- null}
h -t 7.9000372 -s 2 -d 0 -p ack -e 40 -c 1 -i 24 -a 1 -x {4.0 0.0 -1 ------- null}
r -t 7.9000412 -s 3 -d 2 -p ack -e 40 -c 1 -i 25 -a 1 -x {4.0 0.0 7 ------- null}
+ -t 7.9000412 -s 2 -d 0 -p ack -e 40 -c 1 -i 25 -a 1 -x {4.0 0.0 7 ------- null}
- -t 7.9000412 -s 2 -d 0 -p ack -e 40 -c 1 -i 25 -a 1 -x {4.0 0.0 7 ------- null}
h -t 7.9000412 -s 2 -d 0 -p ack -e 40 -c 1 -i 25 -a 1 -x {4.0 0.0 -1 ------- null}
r -t 7.95002032 -s 3 -d 5 -p tcp -e 1000 -c 2 -i 18 -a 2 -x {1.0 5.0 3 ------- null}
+ -t 7.95002032 -s 5 -d 3 -p ack -e 40 -c 2 -i 26 -a 2 -x {5.0 1.0 3 ------- null}
- -t 7.95002032 -s 5 -d 3 -p ack -e 40 -c 2 -i 26 -a 2 -x {5.0 1.0 3 ------- null}
h -t 7.95002032 -s 5 -d 3 -p ack -e 40 -c 2 -i 26 -a 2 -x {5.0 1.0 -1 ------- null}
r -t 8.25002464 -s 3 -d 5 -p tcp -e 1000 -c 2 -i 22 -a 2 -x {1.0 5.0 4 ------- null}
+ -t 8.25002464 -s 5 -d 3 -p ack -e 40 -c 2 -i 27 -a 2 -x {5.0 1.0 4 ------- null}
- -t 8.25002464 -s 5 -d 3 -p ack -e 40 -c 2 -i 27 -a 2 -x {5.0 1.0 4 ------- null}
h -t 8.25002464 -s 5 -d 3 -p ack -e 40 -c 2 -i 27 -a 2 -x {5.0 1.0 -1 ------- null}
r -t 8.40003328 -s 2 -d 0 -p ack -e 40 -c 1 -i 23 -a 1 -x {4.0 0.0 5 ------- null}
+ -t 8.40003328 -s 0 -d 2 -p tcp -e 1000 -c 1 -i 28 -a 1 -x {0.0 4.0 8 ------- null}
- -t 8.40003328 -s 0 -d 2 -p tcp -e 1000 -c 1 -i 28 -a 1 -x {0.0 4.0 8 ------- null}
h -t 8.40003328 -s 0 -d 2 -p tcp -e 1000 -c 1 -i 28 -a 1 -x {0.0 4.0 -1 ------- null}
+ -t 8.40003328 -s 0 -d 2 -p tcp -e 1000 -c 1 -i 29 -a 1 -x {0.0 4.0 9 ------- null}
- -t 8.40003528 -s 0 -d 2 -p tcp -e 1000 -c 1 -i 29 -a 1 -x {0.0 4.0 9 ------- null}
h -t 8.40003528 -s 0 -d 2 -p tcp -e 1000 -c 1 -i 29 -a 1 -x {0.0 4.0 -1 ------- null}
r -t 8.40003728 -s 2 -d 0 -p ack -e 40 -c 1 -i 24 -a 1 -x {4.0 0.0 6 ------- null}
+ -t 8.40003728 -s 0 -d 2 -p tcp -e 1000 -c 1 -i 30 -a 1 -x {0.0 4.0 10 ------- null}
+ -t 8.40003728 -s 0 -d 2 -p tcp -e 1000 -c 1 -i 31 -a 1 -x {0.0 4.0 11 ------- null}
- -t 8.40003728 -s 0 -d 2 -p tcp -e 1000 -c 1 -i 30 -a 1 -x {0.0 4.0 10 ------- null}
h -t 8.40003728 -s 0 -d 2 -p tcp -e 1000 -c 1 -i 30 -a 1 -x {0.0 4.0 -1 ------- null}
- -t 8.40003928 -s 0 -d 2 -p tcp -e 1000 -c 1 -i 31 -a 1 -x {0.0 4.0 11 ------- null}
h -t 8.40003928 -s 0 -d 2 -p tcp -e 1000 -c 1 -i 31 -a 1 -x {0.0 4.0 -1 ------- null}
r -t 8.40004128 -s 2 -d 0 -p ack -e 40 -c 1 -i 25 -a 1 -x {4.0 0.0 7 ------- null}
+ -t 8.40004128 -s 0 -d 2 -p tcp -e 1000 -c 1 -i 32 -a 1 -x {0.0 4.0 12 ------- null}
+ -t 8.40004128 -s 0 -d 2 -p tcp -e 1000 -c 1 -i 33 -a 1 -x {0.0 4.0 13 ------- null}
- -t 8.40004128 -s 0 -d 2 -p tcp -e 1000 -c 1 -i 32 -a 1 -x {0.0 4.0 12 ------- null}
h -t 8.40004128 -s 0 -d 2 -p tcp -e 1000 -c 1 -i 32 -a 1 -x {0.0 4.0 -1 ------- null}
- -t 8.40004328 -s 0 -d 2 -p tcp -e 1000 -c 1 -i 33 -a 1 -x {0.0 4.0 13 ------- null}
h -t 8.40004328 -s 0 -d 2 -p tcp -e 1000 -c 1 -i 33 -a 1 -x {0.0 4.0 -1 ------- null}
r -t 8.7500204 -s 5 -d 3 -p ack -e 40 -c 2 -i 26 -a 2 -x {5.0 1.0 3 ------- null}
+ -t 8.7500204 -s 3 -d 2 -p ack -e 40 -c 2 -i 26 -a 2 -x {5.0 1.0 3 ------- null}
- -t 8.7500204 -s 3 -d 2 -p ack -e 40 -c 2 -i 26 -a 2 -x {5.0 1.0 3 ------- null}
h -t 8.7500204 -s 3 -d 2 -p ack -e 40 -c 2 -i 26 -a 2 -x {5.0 1.0 -1 ------- null}
r -t 8.80002056 -s 3 -d 2 -p ack -e 40 -c 2 -i 26 -a 2 -x {5.0 1.0 3 ------- null}
+ -t 8.80002056 -s 2 -d 1 -p ack -e 40 -c 2 -i 26 -a 2 -x {5.0 1.0 3 ------- null}
- -t 8.80002056 -s 2 -d 1 -p ack -e 40 -c 2 -i 26 -a 2 -x {5.0 1.0 3 ------- null}
h -t 8.80002056 -s 2 -d 1 -p ack -e 40 -c 2 -i 26 -a 2 -x {5.0 1.0 -1 ------- null}
r -t 8.90003528 -s 0 -d 2 -p tcp -e 1000 -c 1 -i 28 -a 1 -x {0.0 4.0 8 ------- null}
+ -t 8.90003528 -s 2 -d 3 -p tcp -e 1000 -c 1 -i 28 -a 1 -x {0.0 4.0 8 ------- null}
- -t 8.90003528 -s 2 -d 3 -p tcp -e 1000 -c 1 -i 28 -a 1 -x {0.0 4.0 8 ------- null}
h -t 8.90003528 -s 2 -d 3 -p tcp -e 1000 -c 1 -i 28 -a 1 -x {0.0 4.0 -1 ------- null}
r -t 8.90003728 -s 0 -d 2 -p tcp -e 1000 -c 1 -i 29 -a 1 -x {0.0 4.0 9 ------- null}