0.00000  0  0  4  0  cwnd_ 2.000 
0.00000  0  0  4  0  ssthresh_ 20
0.00000  0  0  4  0  ack_ -1
0.00000  0  0  4  0  maxseq_ -1
0.00000  0  0  4  0  rtt_ 0.000 
0.00000  1  0  5  0  cwnd_ 2.000 
0.00000  1  0  5  0  ssthresh_ 20
0.00000  1  0  5  0  ack_ -1
0.00000  1  0  5  0  maxseq_ -1
0.00000  1  0  5  0  rtt_ 0.000 
0.00000  0  0  4  0  ssthresh_ 1000
0.00000  1  0  5  0  ssthresh_ 1000
+ 0 1 2 tcp 40 ------- 2 1.0 5.0 0 0
- 0 1 2 tcp 40 ------- 2 1.0 5.0 0 0
0.00000  1  0  5  0  maxseq_ 0
+ 0 1 2 tcp 1040 ------- 2 1.0 5.0 1 1
0.00000  1  0  5  0  maxseq_ 1
+ 0 0 2 tcp 40 ------- 1 0.0 4.0 0 2
- 0 0 2 tcp 40 ------- 1 0.0 4.0 0 2
0.00000  0  0  4  0  maxseq_ 0
+ 0 0 2 tcp 1040 ------- 1 0.0 4.0 1 3
0.00000  0  0  4  0  maxseq_ 1
- 0 1 2 tcp 1040 ------- 2 1.0 5.0 1 1
- 0 0 2 tcp 1040 ------- 1 0.0 4.0 1 3
r 0.5 0 2 tcp 40 ------- 1 0.0 4.0 0 2
+ 0.5 2 3 tcp 40 ------- 1 0.0 4.0 0 2
- 0.5 2 3 tcp 40 ------- 1 0.0 4.0 0 2
r 0.500002 0 2 tcp 1040 ------- 1 0.0 4.0 1 3
+ 0.500002 2 3 tcp 1040 ------- 1 0.0 4.0 1 3
- 0.500002 2 3 tcp 1040 ------- 1 0.0 4.0 1 3
r 0.55 2 3 tcp 40 ------- 1 0.0 4.0 0 2
+ 0.55 3 4 tcp 40 ------- 1 0.0 4.0 0 2
- 0.55 3 4 tcp 40 ------- 1 0.0 4.0 0 2
r 0.550006 2 3 tcp 1040 ------- 1 0.0 4.0 1 3
+ 0.550006 3 4 tcp 1040 ------- 1 0.0 4.0 1 3
- 0.550006 3 4 tcp 1040 ------- 1 0.0 4.0 1 3
r 0.8 1 2 tcp 40 ------- 2 1.0 5.0 0 0
+ 0.8 2 3 tcp 40 ------- 2 1.0 5.0 0 0
- 0.8 2 3 tcp 40 ------- 2 1.0 5.0 0 0
r 0.800002 1 2 tcp 1040 ------- 2 1.0 5.0 1 1
+ 0.800002 2 3 tcp 1040 ------- 2 1.0 5.0 1 1
- 0.800002 2 3 tcp 1040 ------- 2 1.0 5.0 1 1
r 0.85 2 3 tcp 40 ------- 2 1.0 5.0 0 0
+ 0.85 3 5 tcp 40 ------- 2 1.0 5.0 0 0
- 0.85 3 5 tcp 40 ------- 2 1.0 5.0 0 0
r 0.850006 2 3 tcp 1040 ------- 2 1.0 5.0 1 1
+ 0.850006 3 5 tcp 1040 ------- 2 1.0 5.0 1 1
- 0.850006 3 5 tcp 1040 ------- 2 1.0 5.0 1 1
r 1.05 3 4 tcp 40 ------- 1 0.0 4.0 0 2
+ 1.05 4 3 ack 40 ------- 1 4.0 0.0 0 4
- 1.05 4 3 ack 40 ------- 1 4.0 0.0 0 4
r 1.050008 3 4 tcp 1040 ------- 1 0.0 4.0 1 3
+ 1.050008 4 3 ack 40 ------- 1 4.0 0.0 1 5
- 1.050008 4 3 ack 40 ------- 1 4.0 0.0 1 5
r 1.55 4 3 ack 40 ------- 1 4.0 0.0 0 4
+ 1.55 3 2 ack 40 ------- 1 4.0 0.0 0 4
- 1.55 3 2 ack 40 ------- 1 4.0 0.0 0 4
r 1.550008 4 3 ack 40 ------- 1 4.0 0.0 1 5
+ 1.550008 3 2 ack 40 ------- 1 4.0 0.0 1 5
- 1.550008 3 2 ack 40 ------- 1 4.0 0.0 1 5
r 1.600001 3 2 ack 40 ------- 1 4.0 0.0 0 4
+ 1.600001 2 0 ack 40 ------- 1 4.0 0.0 0 4
- 1.600001 2 0 ack 40 ------- 1 4.0 0.0 0 4
r 1.600009 3 2 ack 40 ------- 1 4.0 0.0 1 5
+ 1.600009 2 0 ack 40 ------- 1 4.0 0.0 1 5
- 1.600009 2 0 ack 40 ------- 1 4.0 0.0 1 5
r 1.65 3 5 tcp 40 ------- 2 1.0 5.0 0 0
+ 1.65 5 3 ack 40 ------- 2 5.0 1.0 0 6
- 1.65 5 3 ack 40 ------- 2 5.0 1.0 0 6
r 1.650008 3 5 tcp 1040 ------- 2 1.0 5.0 1 1
+ 1.650008 5 3 ack 40 ------- 2 5.0 1.0 1 7
- 1.650008 5 3 ack 40 ------- 2 5.0 1.0 1 7
r 2.100001 2 0 ack 40 ------- 1 4.0 0.0 0 4
2.10000  0  0  4  0  ack_ 0
2.10000  0  0  4  0  rtt_ 2.100 
2.10000  0  0  4  0  cwnd_ 3.000 
+ 2.100001 0 2 tcp 1040 ------- 1 0.0 4.0 2 8
- 2.100001 0 2 tcp 1040 ------- 1 0.0 4.0 2 8
2.10000  0  0  4  0  maxseq_ 2
+ 2.100001 0 2 tcp 1040 ------- 1 0.0 4.0 3 9
2.10000  0  0  4  0  maxseq_ 3
- 2.100003 0 2 tcp 1040 ------- 1 0.0 4.0 3 9
r 2.100009 2 0 ack 40 ------- 1 4.0 0.0 1 5
2.10001  0  0  4  0  ack_ 1
2.10001  0  0  4  0  cwnd_ 4.000 
+ 2.100009 0 2 tcp 1040 ------- 1 0.0 4.0 4 10
- 2.100009 0 2 tcp 1040 ------- 1 0.0 4.0 4 10
2.10001  0  0  4  0  maxseq_ 4
+ 2.100009 0 2 tcp 1040 ------- 1 0.0 4.0 5 11
2.10001  0  0  4  0  maxseq_ 5
- 2.100011 0 2 tcp 1040 ------- 1 0.0 4.0 5 11
r 2.45 5 3 ack 40 ------- 2 5.0 1.0 0 6
+ 2.45 3 2 ack 40 ------- 2 5.0 1.0 0 6
- 2.45 3 2 ack 40 ------- 2 5.0 1.0 0 6
r 2.450008 5 3 ack 40 ------- 2 5.0 1.0 1 7
+ 2.450008 3 2 ack 40 ------- 2 5.0 1.0 1 7
- 2.450008 3 2 ack 40 ------- 2 5.0 1.0 1 7
r 2.500001 3 2 ack 40 ------- 2 5.0 1.0 0 6
+ 2.500001 2 1 ack 40 ------- 2 5.0 1.0 0 6
- 2.500001 2 1 ack 40 ------- 2 5.0 1.0 0 6
r 2.500009 3 2 ack 40 ------- 2 5.0 1.0 1 7
+ 2.500009 2 1 ack 40 ------- 2 5.0 1.0 1 7
- 2.500009 2 1 ack 40 ------- 2 5.0 1.0 1 7
r 2.600003 0 2 tcp 1040 ------- 1 0.0 4.0 2 8
+ 2.600003 2 3 tcp 1040 ------- 1 0.0 4.0 2 8
- 2.600003 2 3 tcp 1040 ------- 1 0.0 4.0 2 8
r 2.600005 0 2 tcp 1040 ------- 1 0.0 4.0 3 9
+ 2.600005 2 3 tcp 1040 ------- 1 0.0 4.0 3 9
- 2.600007 2 3 tcp 1040 ------- 1 0.0 4.0 3 9
r 2.600011 0 2 tcp 1040 ------- 1 0.0 4.0 4 10
+ 2.600011 2 3 tcp 1040 ------- 1 0.0 4.0 4 10
- 2.600011 2 3 tcp 1040 ------- 1 0.0 4.0 4 10
r 2.600013 0 2 tcp 1040 ------- 1 0.0 4.0 5 11
+ 2.600013 2 3 tcp 1040 ------- 1 0.0 4.0 5 11
- 2.600015 2 3 tcp 1040 ------- 1 0.0 4.0 5 11
r 2.650007 2 3 tcp 1040 ------- 1 0.0 4.0 2 8
+ 2.650007 3 4 tcp 1040 ------- 1 0.0 4.0 2 8
- 2.650007 3 4 tcp 1040 ------- 1 0.0 4.0 2 8
r 2.650011 2 3 tcp 1040 ------- 1 0.0 4.0 3 9
+ 2.650011 3 4 tcp 1040 ------- 1 0.0 4.0 3 9
- 2.650011 3 4 tcp 1040 ------- 1 0.0 4.0 3 9
r 2.650015 2 3 tcp 1040 ------- 1 0.0 4.0 4 10
+ 2.650015 3 4 tcp 1040 ------- 1 0.0 4.0 4 10
- 2.650015 3 4 tcp 1040 ------- 1 0.0 4.0 4 10
r 2.650019 2 3 tcp 1040 ------- 1 0.0 4.0 5 11
+ 2.650019 3 4 tcp 1040 ------- 1 0.0 4.0 5 11
- 2.650019 3 4 tcp 1040 ------- 1 0.0 4.0 5 11
3.00000  1  0  5  0  cwnd_ 1.000 
3.00000  1  0  5  0  ssthresh_ 2
+ 3 1 2 tcp 40 ---A--- 2 1.0 5.0 0 12
- 3 1 2 tcp 40 ---A--- 2 1.0 5.0 0 12
r 3.150009 3 4 tcp 1040 ------- 1 0.0 4.0 2 8
+ 3.150009 4 3 ack 40 ------- 1 4.0 0.0 2 13
- 3.150009 4 3 ack 40 ------- 1 4.0 0.0 2 13
r 3.150013 3 4 tcp 1040 ------- 1 0.0 4.0 3 9
+ 3.150013 4 3 ack 40 ------- 1 4.0 0.0 3 14
- 3.150013 4 3 ack 40 ------- 1 4.0 0.0 3 14
r 3.150017 3 4 tcp 1040 ------- 1 0.0 4.0 4 10
+ 3.150017 4 3 ack 40 ------- 1 4.0 0.0 4 15
- 3.150017 4 3 ack 40 ------- 1 4.0 0.0 4 15
r 3.150021 3 4 tcp 1040 ------- 1 0.0 4.0 5 11
+ 3.150021 4 3 ack 40 ------- 1 4.0 0.0 5 16
- 3.150021 4 3 ack 40 ------- 1 4.0 0.0 5 16
r 3.300001 2 1 ack 40 ------- 2 5.0 1.0 0 6
3.30000  1  0  5  0  ack_ 0
3.30000  1  0  5  0  cwnd_ 2.000 
+ 3.300001 1 2 tcp 1040 ------- 2 1.0 5.0 1 17
- 3.300001 1 2 tcp 1040 ------- 2 1.0 5.0 1 17
+ 3.300001 1 2 tcp 1040 ------- 2 1.0 5.0 2 18
3.30000  1  0  5  0  maxseq_ 2
- 3.300003 1 2 tcp 1040 ------- 2 1.0 5.0 2 18
r 3.300009 2 1 ack 40 ------- 2 5.0 1.0 1 7
3.30001  1  0  5  0  ack_ 1
3.30001  1  0  5  0  cwnd_ 3.000 
+ 3.300009 1 2 tcp 1040 ------- 2 1.0 5.0 3 19
- 3.300009 1 2 tcp 1040 ------- 2 1.0 5.0 3 19
3.30001  1  0  5  0  maxseq_ 3
+ 3.300009 1 2 tcp 1040 ------- 2 1.0 5.0 4 20
3.30001  1  0  5  0  maxseq_ 4
- 3.300011 1 2 tcp 1040 ------- 2 1.0 5.0 4 20
r 3.650009 4 3 ack 40 ------- 1 4.0 0.0 2 13
+ 3.650009 3 2 ack 40 ------- 1 4.0 0.0 2 13
- 3.650009 3 2 ack 40 ------- 1 4.0 0.0 2 13
r 3.650013 4 3 ack 40 ------- 1 4.0 0.0 3 14
+ 3.650013 3 2 ack 40 ------- 1 4.0 0.0 3 14
- 3.650013 3 2 ack 40 ------- 1 4.0 0.0 3 14
r 3.650017 4 3 ack 40 ------- 1 4.0 0.0 4 15
+ 3.650017 3 2 ack 40 ------- 1 4.0 0.0 4 15
- 3.650017 3 2 ack 40 ------- 1 4.0 0.0 4 15
r 3.650022 4 3 ack 40 ------- 1 4.0 0.0 5 16
+ 3.650022 3 2 ack 40 ------- 1 4.0 0.0 5 16
- 3.650022 3 2 ack 40 ------- 1 4.0 0.0 5 16
r 3.700009 3 2 ack 40 ------- 1 4.0 0.0 2 13
+ 3.700009 2 0 ack 40 ------- 1 4.0 0.0 2 13
- 3.700009 2 0 ack 40 ------- 1 4.0 0.0 2 13
r 3.700013 3 2 ack 40 ------- 1 4.0 0.0 3 14
+ 3.700013 2 0 ack 40 ------- 1 4.0 0.0 3 14
- 3.700013 2 0 ack 40 ------- 1 4.0 0.0 3 14
r 3.700018 3 2 ack 40 ------- 1 4.0 0.0 4 15
+ 3.700018 2 0 ack 40 ------- 1 4.0 0.0 4 15
- 3.700018 2 0 ack 40 ------- 1 4.0 0.0 4 15
r 3.700022 3 2 ack 40 ------- 1 4.0 0.0 5 16
+ 3.700022 2 0 ack 40 ------- 1 4.0 0.0 5 16
- 3.700022 2 0 ack 40 ------- 1 4.0 0.0 5 16
r 3.8 1 2 tcp 40 ---A--- 2 1.0 5.0 0 12
+ 3.8 2 3 tcp 40 ---A--- 2 1.0 5.0 0 12
- 3.8 2 3 tcp 40 ---A--- 2 1.0 5.0 0 12
r 3.85 2 3 tcp 40 ---A--- 2 1.0 5.0 0 12
+ 3.85 3 5 tcp 40 ---A--- 2 1.0 5.0 0 12
- 3.85 3 5 tcp 40 ---A--- 2 1.0 5.0 0 12
r 4.100003 1 2 tcp 1040 ------- 2 1.0 5.0 1 17
+ 4.100003 2 3 tcp 1040 ------- 2 1.0 5.0 1 17
- 4.100003 2 3 tcp 1040 ------- 2 1.0 5.0 1 17
r 4.100005 1 2 tcp 1040 ------- 2 1.0 5.0 2 18
+ 4.100005 2 3 tcp 1040 ------- 2 1.0 5.0 2 18
- 4.100007 2 3 tcp 1040 ------- 2 1.0 5.0 2 18
r 4.100011 1 2 tcp 1040 ------- 2 1.0 5.0 3 19
+ 4.100011 2 3 tcp 1040 ------- 2 1.0 5.0 3 19
- 4.100011 2 3 tcp 1040 ------- 2 1.0 5.0 3 19
r 4.100013 1 2 tcp 1040 ------- 2 1.0 5.0 4 20
+ 4.100013 2 3 tcp 1040 ------- 2 1.0 5.0 4 20
- 4.100015 2 3 tcp 1040 ------- 2 1.0 5.0 4 20
r 4.150007 2 3 tcp 1040 ------- 2 1.0 5.0 1 17
+ 4.150007 3 5 tcp 1040 ------- 2 1.0 5.0 1 17
- 4.150007 3 5 tcp 1040 ------- 2 1.0 5.0 1 17
r 4.150011 2 3 tcp 1040 ------- 2 1.0 5.0 2 18
+ 4.150011 3 5 tcp 1040 ------- 2 1.0 5.0 2 18
- 4.150011 3 5 tcp 1040 ------- 2 1.0 5.0 2 18
r 4.150015 2 3 tcp 1040 ------- 2 1.0 5.0 3 19
+ 4.150015 3 5 tcp 1040 ------- 2 1.0 5.0 3 19
- 4.150015 3 5 tcp 1040 ------- 2 1.0 5.0 3 19
r 4.150019 2 3 tcp 1040 ------- 2 1.0 5.0 4 20
+ 4.150019 3 5 tcp 1040 ------- 2 1.0 5.0 4 20
- 4.150019 3 5 tcp 1040 ------- 2 1.0 5.0 4 20
r 4.200009 2 0 ack 40 ------- 1 4.0 0.0 2 13
4.20001  0  0  4  0  ack_ 2
4.20001  0  0  4  0  cwnd_ 5.000 
+ 4.200009 0 2 tcp 1040 ------- 1 0.0 4.0 6 21
- 4.200009 0 2 tcp 1040 ------- 1 0.0 4.0 6 21
4.20001  0  0  4  0  maxseq_ 6
+ 4.200009 0 2 tcp 1040 ------- 1 0.0 4.0 7 22
4.20001  0  0  4  0  maxseq_ 7
- 4.200011 0 2 tcp 1040 ------- 1 0.0 4.0 7 22
r 4.200013 2 0 ack 40 ------- 1 4.0 0.0 3 14
4.20001  0  0  4  0  ack_ 3
4.20001  0  0  4  0  cwnd_ 6.000 
+ 4.200013 0 2 tcp 1040 ------- 1 0.0 4.0 8 23
4.20001  0  0  4  0  maxseq_ 8
+ 4.200013 0 2 tcp 1040 ------- 1 0.0 4.0 9 24
4.20001  0  0  4  0  maxseq_ 9
- 4.200013 0 2 tcp 1040 ------- 1 0.0 4.0 8 23
- 4.200016 0 2 tcp 1040 ------- 1 0.0 4.0 9 24
r 4.200018 2 0 ack 40 ------- 1 4.0 0.0 4 15
4.20002  0  0  4  0  ack_ 4
4.20002  0  0  4  0  cwnd_ 7.000 
+ 4.200018 0 2 tcp 1040 ------- 1 0.0 4.0 10 25
- 4.200018 0 2 tcp 1040 ------- 1 0.0 4.0 10 25
4.20002  0  0  4  0  maxseq_ 10
+ 4.200018 0 2 tcp 1040 ------- 1 0.0 4.0 11 26
4.20002  0  0  4  0  maxseq_ 11
- 4.20002 0 2 tcp 1040 ------- 1 0.0 4.0 11 26
r 4.200022 2 0 ack 40 ------- 1 4.0 0.0 5 16
4.20002  0  0  4  0  ack_ 5
4.20002  0  0  4  0  cwnd_ 8.000 
+ 4.200022 0 2 tcp 1040 ------- 1 0.0 4.0 12 27
4.20002  0  0  4  0  maxseq_ 12
+ 4.200022 0 2 tcp 1040 ------- 1 0.0 4.0 13 28
4.20002  0  0  4  0  maxseq_ 13
- 4.200022 0 2 tcp 1040 ------- 1 0.0 4.0 12 27
- 4.200024 0 2 tcp 1040 ------- 1 0.0 4.0 13 28
r 4.65 3 5 tcp 40 ---A--- 2 1.0 5.0 0 12
+ 4.65 5 3 ack 40 ------- 2 5.0 1.0 1 29
- 4.65 5 3 ack 40 ------- 2 5.0 1.0 1 29
r 4.700011 0 2 tcp 1040 ------- 1 0.0 4.0 6 21
+ 4.700011 2 3 tcp 1040 ------- 1 0.0 4.0 6 21
- 4.700011 2 3 tcp 1040 ------- 1 0.0 4.0 6 21
r 4.700013 0 2 tcp 1040 ------- 1 0.0 4.0 7 22
+ 4.700013 2 3 tcp 1040 ------- 1 0.0 4.0 7 22
r 4.700016 0 2 tcp 1040 ------- 1 0.0 4.0 8 23
+ 4.700016 2 3 tcp 1040 ------- 1 0.0 4.0 8 23
- 4.700016 2 3 tcp 1040 ------- 1 0.0 4.0 7 22
r 4.700018 0 2 tcp 1040 ------- 1 0.0 4.0 9 24
+ 4.700018 2 3 tcp 1040 ------- 1 0.0 4.0 9 24
- 4.70002 2 3 tcp 1040 ------- 1 0.0 4.0 8 23
r 4.70002 0 2 tcp 1040 ------- 1 0.0 4.0 10 25
+ 4.70002 2 3 tcp 1040 ------- 1 0.0 4.0 10 25
r 4.700022 0 2 tcp 1040 ------- 1 0.0 4.0 11 26
+ 4.700022 2 3 tcp 1040 ------- 1 0.0 4.0 11 26
- 4.700024 2 3 tcp 1040 ------- 1 0.0 4.0 9 24
r 4.700024 0 2 tcp 1040 ------- 1 0.0 4.0 12 27
+ 4.700024 2 3 tcp 1040 ------- 1 0.0 4.0 12 27
r 4.700026 0 2 tcp 1040 ------- 1 0.0 4.0 13 28
+ 4.700026 2 3 tcp 1040 ------- 1 0.0 4.0 13 28
- 4.700028 2 3 tcp 1040 ------- 1 0.0 4.0 10 25
- 4.700032 2 3 tcp 1040 ------- 1 0.0 4.0 11 26
- 4.700036 2 3 tcp 1040 ------- 1 0.0 4.0 12 27
- 4.70004 2 3 tcp 1040 ------- 1 0.0 4.0 13 28
r 4.750016 2 3 tcp 1040 ------- 1 0.0 4.0 6 21
+ 4.750016 3 4 tcp 1040 ------- 1 0.0 4.0 6 21
- 4.750016 3 4 tcp 1040 ------- 1 0.0 4.0 6 21
r 4.75002 2 3 tcp 1040 ------- 1 0.0 4.0 7 22
+ 4.75002 3 4 tcp 1040 ------- 1 0.0 4.0 7 22
- 4.75002 3 4 tcp 1040 ------- 1 0.0 4.0 7 22
r 4.750024 2 3 tcp 1040 ------- 1 0.0 4.0 8 23
+ 4.750024 3 4 tcp 1040 ------- 1 0.0 4.0 8 23
- 4.750024 3 4 tcp 1040 ------- 1 0.0 4.0 8 23
r 4.750028 2 3 tcp 1040 ------- 1 0.0 4.0 9 24
+ 4.750028 3 4 tcp 1040 ------- 1 0.0 4.0 9 24
- 4.750028 3 4 tcp 1040 ------- 1 0.0 4.0 9 24
r 4.750032 2 3 tcp 1040 ------- 1 0.0 4.0 10 25
+ 4.750032 3 4 tcp 1040 ------- 1 0.0 4.0 10 25
- 4.750032 3 4 tcp 1040 ------- 1 0.0 4.0 10 25
r 4.750036 2 3 tcp 1040 ------- 1 0.0 4.0 11 26
+ 4.750036 3 4 tcp 1040 ------- 1 0.0 4.0 11 26
- 4.750036 3 4 tcp 1040 ------- 1 0.0 4.0 11 26
r 4.75004 2 3 tcp 1040 ------- 1 0.0 4.0 12 27
+ 4.75004 3 4 tcp 1040 ------- 1 0.0 4.0 12 27
- 4.75004 3 4 tcp 1040 ------- 1 0.0 4.0 12 27
r 4.750045 2 3 tcp 1040 ------- 1 0.0 4.0 13 28
+ 4.750045 3 4 tcp 1040 ------- 1 0.0 4.0 13 28
- 4.750045 3 4 tcp 1040 ------- 1 0.0 4.0 13 28
r 4.950009 3 5 tcp 1040 ------- 2 1.0 5.0 1 17
+ 4.950009 5 3 ack 40 ------- 2 5.0 1.0 1 30
- 4.950009 5 3 ack 40 ------- 2 5.0 1.0 1 30
r 4.950013 3 5 tcp 1040 ------- 2 1.0 5.0 2 18
+ 4.950013 5 3 ack 40 ------- 2 5.0 1.0 2 31
- 4.950013 5 3 ack 40 ------- 2 5.0 1.0 2 31
r 4.950017 3 5 tcp 1040 ------- 2 1.0 5.0 3 19
+ 4.950017 5 3 ack 40 ------- 2 5.0 1.0 3 32
- 4.950017 5 3 ack 40 ------- 2 5.0 1.0 3 32
r 4.950021 3 5 tcp 1040 ------- 2 1.0 5.0 4 20
+ 4.950021 5 3 ack 40 ------- 2 5.0 1.0 4 33
- 4.950021 5 3 ack 40 ------- 2 5.0 1.0 4 33
r 5.250018 3 4 tcp 1040 ------- 1 0.0 4.0 6 21
+ 5.250018 4 3 ack 40 ------- 1 4.0 0.0 6 34
- 5.250018 4 3 ack 40 ------- 1 4.0 0.0 6 34
r 5.250022 3 4 tcp 1040 ------- 1 0.0 4.0 7 22
+ 5.250022 4 3 ack 40 ------- 1 4.0 0.0 7 35
- 5.250022 4 3 ack 40 ------- 1 4.0 0.0 7 35
r 5.250026 3 4 tcp 1040 ------- 1 0.0 4.0 8 23
+ 5.250026 4 3 ack 40 ------- 1 4.0 0.0 8 36
- 5.250026 4 3 ack 40 ------- 1 4.0 0.0 8 36
r 5.25003 3 4 tcp 1040 ------- 1 0.0 4.0 9 24
+ 5.25003 4 3 ack 40 ------- 1 4.0 0.0 9 37
- 5.25003 4 3 ack 40 ------- 1 4.0 0.0 9 37
r 5.250034 3 4 tcp 1040 ------- 1 0.0 4.0 10 25
+ 5.250034 4 3 ack 40 ------- 1 4.0 0.0 10 38
- 5.250034 4 3 ack 40 ------- 1 4.0 0.0 10 38
r 5.250038 3 4 tcp 1040 ------- 1 0.0 4.0 11 26
+ 5.250038 4 3 ack 40 ------- 1 4.0 0.0 11 39
- 5.250038 4 3 ack 40 ------- 1 4.0 0.0 11 39
r 5.250043 3 4 tcp 1040 ------- 1 0.0 4.0 12 27
+ 5.250043 4 3 ack 40 ------- 1 4.0 0.0 12 40
- 5.250043 4 3 ack 40 ------- 1 4.0 0.0 12 40
r 5.250047 3 4 tcp 1040 ------- 1 0.0 4.0 13 28
+ 5.250047 4 3 ack 40 ------- 1 4.0 0.0 13 41
- 5.250047 4 3 ack 40 ------- 1 4.0 0.0 13 41
r 5.45 5 3 ack 40 ------- 2 5.0 1.0 1 29
+ 5.45 3 2 ack 40 ------- 2 5.0 1.0 1 29
- 5.45 3 2 ack 40 ------- 2 5.0 1.0 1 29
r 5.500001 3 2 ack 40 ------- 2 5.0 1.0 1 29
+ 5.500001 2 1 ack 40 ------- 2 5.0 1.0 1 29
- 5.500001 2 1 ack 40 ------- 2 5.0 1.0 1 29
r 5.750009 5 3 ack 40 ------- 2 5.0 1.0 1 30
+ 5.750009 3 2 ack 40 ------- 2 5.0 1.0 1 30
- 5.750009 3 2 ack 40 ------- 2 5.0 1.0 1 30
r 5.750013 5 3 ack 40 ------- 2 5.0 1.0 2 31
+ 5.750013 3 2 ack 40 ------- 2 5.0 1.0 2 31
- 5.750013 3 2 ack 40 ------- 2 5.0 1.0 2 31
r 5.750017 5 3 ack 40 ------- 2 5.0 1.0 3 32
+ 5.750017 3 2 ack 40 ------- 2 5.0 1.0 3 32
- 5.750017 3 2 ack 40 ------- 2 5.0 1.0 3 32
r 5.750018 4 3 ack 40 ------- 1 4.0 0.0 6 34
+ 5.750018 3 2 ack 40 ------- 1 4.0 0.0 6 34
- 5.750018 3 2 ack 40 ------- 1 4.0 0.0 6 34
r 5.750022 5 3 ack 40 ------- 2 5.0 1.0 4 33
+ 5.750022 3 2 ack 40 ------- 2 5.0 1.0 4 33
- 5.750022 3 2 ack 40 ------- 2 5.0 1.0 4 33
r 5.750022 4 3 ack 40 ------- 1 4.0 0.0 7 35
+ 5.750022 3 2 ack 40 ------- 1 4.0 0.0 7 35
- 5.750022 3 2 ack 40 ------- 1 4.0 0.0 7 35
r 5.750026 4 3 ack 40 ------- 1 4.0 0.0 8 36
+ 5.750026 3 2 ack 40 ------- 1 4.0 0.0 8 36
- 5.750026 3 2 ack 40 ------- 1 4.0 0.0 8 36
r 5.75003 4 3 ack 40 ------- 1 4.0 0.0 9 37
+ 5.75003 3 2 ack 40 ------- 1 4.0 0.0 9 37
- 5.75003 3 2 ack 40 ------- 1 4.0 0.0 9 37
r 5.750034 4 3 ack 40 ------- 1 4.0 0.0 10 38
+ 5.750034 3 2 ack 40 ------- 1 4.0 0.0 10 38
- 5.750034 3 2 ack 40 ------- 1 4.0 0.0 10 38
r 5.750038 4 3 ack 40 ------- 1 4.0 0.0 11 39
+ 5.750038 3 2 ack 40 ------- 1 4.0 0.0 11 39
- 5.750038 3 2 ack 40 ------- 1 4.0 0.0 11 39
r 5.750043 4 3 ack 40 ------- 1 4.0 0.0 12 40
+ 5.750043 3 2 ack 40 ------- 1 4.0 0.0 12 40
- 5.750043 3 2 ack 40 ------- 1 4.0 0.0 12 40
r 5.750047 4 3 ack 40 ------- 1 4.0 0.0 13 41
+ 5.750047 3 2 ack 40 ------- 1 4.0 0.0 13 41
- 5.750047 3 2 ack 40 ------- 1 4.0 0.0 13 41
r 5.800009 3 2 ack 40 ------- 2 5.0 1.0 1 30
+ 5.800009 2 1 ack 40 ------- 2 5.0 1.0 1 30
- 5.800009 2 1 ack 40 ------- 2 5.0 1.0 1 30
r 5.800013 3 2 ack 40 ------- 2 5.0 1.0 2 31
+ 5.800013 2 1 ack 40 ------- 2 5.0 1.0 2 31
- 5.800013 2 1 ack 40 ------- 2 5.0 1.0 2 31
r 5.800018 3 2 ack 40 ------- 2 5.0 1.0 3 32
+ 5.800018 2 1 ack 40 ------- 2 5.0 1.0 3 32
- 5.800018 2 1 ack 40 ------- 2 5.0 1.0 3 32
r 5.800018 3 2 ack 40 ------- 1 4.0 0.0 6 34
+ 5.800018 2 0 ack 40 ------- 1 4.0 0.0 6 34
- 5.800018 2 0 ack 40 ------- 1 4.0 0.0 6 34
r 5.800022 3 2 ack 40 ------- 2 5.0 1.0 4 33
+ 5.800022 2 1 ack 40 ------- 2 5.0 1.0 4 33
- 5.800022 2 1 ack 40 ------- 2 5.0 1.0 4 33
r 5.800022 3 2 ack 40 ------- 1 4.0 0.0 7 35
+ 5.800022 2 0 ack 40 ------- 1 4.0 0.0 7 35
- 5.800022 2 0 ack 40 ------- 1 4.0 0.0 7 35
r 5.800026 3 2 ack 40 ------- 1 4.0 0.0 8 36
+ 5.800026 2 0 ack 40 ------- 1 4.0 0.0 8 36
- 5.800026 2 0 ack 40 ------- 1 4.0 0.0 8 36
r 5.80003 3 2 ack 40 ------- 1 4.0 0.0 9 37
+ 5.80003 2 0 ack 40 ------- 1 4.0 0.0 9 37
- 5.80003 2 0 ack 40 ------- 1 4.0 0.0 9 37
r 5.800034 3 2 ack 40 ------- 1 4.0 0.0 10 38
+ 5.800034 2 0 ack 40 ------- 1 4.0 0.0 10 38
- 5.800034 2 0 ack 40 ------- 1 4.0 0.0 10 38
r 5.800039 3 2 ack 40 ------- 1 4.0 0.0 11 39
+ 5.800039 2 0 ack 40 ------- 1 4.0 0.0 11 39
- 5.800039 2 0 ack 40 ------- 1 4.0 0.0 11 39
r 5.800043 3 2 ack 40 ------- 1 4.0 0.0 12 40
+ 5.800043 2 0 ack 40 ------- 1 4.0 0.0 12 40
- 5.800043 2 0 ack 40 ------- 1 4.0 0.0 12 40
r 5.800047 3 2 ack 40 ------- 1 4.0 0.0 13 41
+ 5.800047 2 0 ack 40 ------- 1 4.0 0.0 13 41
- 5.800047 2 0 ack 40 ------- 1 4.0 0.0 13 41
r 6.300001 2 1 ack 40 ------- 2 5.0 1.0 1 29
r 6.300018 2 0 ack 40 ------- 1 4.0 0.0 6 34
6.30002  0  0  4  0  ack_ 6
6.30002  0  0  4  0  cwnd_ 9.000 
+ 6.300018 0 2 tcp 1040 ------- 1 0.0 4.0 14 42
- 6.300018 0 2 tcp 1040 ------- 1 0.0 4.0 14 42
6.30002  0  0  4  0  maxseq_ 14
+ 6.300018 0 2 tcp 1040 ------- 1 0.0 4.0 15 43
6.30002  0  0  4  0  maxseq_ 15
- 6.30002 0 2 tcp 1040 ------- 1 0.0 4.0 15 43
r 6.300022 2 0 ack 40 ------- 1 4.0 0.0 7 35
6.30002  0  0  4  0  ack_ 7
6.30002  0  0  4  0  cwnd_ 10.000
+ 6.300022 0 2 tcp 1040 ------- 1 0.0 4.0 16 44
6.30002  0  0  4  0  maxseq_ 16
+ 6.300022 0 2 tcp 1040 ------- 1 0.0 4.0 17 45
6.30002  0  0  4  0  maxseq_ 17
- 6.300022 0 2 tcp 1040 ------- 1 0.0 4.0 16 44
- 6.300024 0 2 tcp 1040 ------- 1 0.0 4.0 17 45
r 6.300026 2 0 ack 40 ------- 1 4.0 0.0 8 36
6.30003  0  0  4  0  ack_ 8
6.30003  0  0  4  0  cwnd_ 11.000
+ 6.300026 0 2 tcp 1040 ------- 1 0.0 4.0 18 46
6.30003  0  0  4  0  maxseq_ 18
+ 6.300026 0 2 tcp 1040 ------- 1 0.0 4.0 19 47
6.30003  0  0  4  0  maxseq_ 19
- 6.300026 0 2 tcp 1040 ------- 1 0.0 4.0 18 46
- 6.300028 0 2 tcp 1040 ------- 1 0.0 4.0 19 47
r 6.30003 2 0 ack 40 ------- 1 4.0 0.0 9 37
6.30003  0  0  4  0  ack_ 9
6.30003  0  0  4  0  cwnd_ 12.000
+ 6.30003 0 2 tcp 1040 ------- 1 0.0 4.0 20 48
6.30003  0  0  4  0  maxseq_ 20
+ 6.30003 0 2 tcp 1040 ------- 1 0.0 4.0 21 49
6.30003  0  0  4  0  maxseq_ 21
- 6.30003 0 2 tcp 1040 ------- 1 0.0 4.0 20 48
- 6.300032 0 2 tcp 1040 ------- 1 0.0 4.0 21 49
r 6.300035 2 0 ack 40 ------- 1 4.0 0.0 10 38
6.30003  0  0  4  0  ack_ 10
6.30003  0  0  4  0  cwnd_ 13.000
+ 6.300035 0 2 tcp 1040 ------- 1 0.0 4.0 22 50
6.30003  0  0  4  0  maxseq_ 22
+ 6.300035 0 2 tcp 1040 ------- 1 0.0 4.0 23 51
6.30003  0  0  4  0  maxseq_ 23
- 6.300035 0 2 tcp 1040 ------- 1 0.0 4.0 22 50
- 6.300037 0 2 tcp 1040 ------- 1 0.0 4.0 23 51
r 6.300039 2 0 ack 40 ------- 1 4.0 0.0 11 39
6.30004  0  0  4  0  ack_ 11
6.30004  0  0  4  0  cwnd_ 14.000
+ 6.300039 0 2 tcp 1040 ------- 1 0.0 4.0 24 52
6.30004  0  0  4  0  maxseq_ 24
+ 6.300039 0 2 tcp 1040 ------- 1 0.0 4.0 25 53
6.30004  0  0  4  0  maxseq_ 25
- 6.300039 0 2 tcp 1040 ------- 1 0.0 4.0 24 52
- 6.300041 0 2 tcp 1040 ------- 1 0.0 4.0 25 53
r 6.300043 2 0 ack 40 ------- 1 4.0 0.0 12 40
6.30004  0  0  4  0  ack_ 12
6.30004  0  0  4  0  cwnd_ 15.000
+ 6.300043 0 2 tcp 1040 ------- 1 0.0 4.0 26 54
6.30004  0  0  4  0  maxseq_ 26
+ 6.300043 0 2 tcp 1040 ------- 1 0.0 4.0 27 55
6.30004  0  0  4  0  maxseq_ 27
- 6.300043 0 2 tcp 1040 ------- 1 0.0 4.0 26 54
- 6.300045 0 2 tcp 1040 ------- 1 0.0 4.0 27 55
r 6.300047 2 0 ack 40 ------- 1 4.0 0.0 13 41
6.30005  0  0  4  0  ack_ 13
6.30005  0  0  4  0  cwnd_ 16.000
+ 6.300047 0 2 tcp 1040 ------- 1 0.0 4.0 28 56
6.30005  0  0  4  0  maxseq_ 28
+ 6.300047 0 2 tcp 1040 ------- 1 0.0 4.0 29 57
6.30005  0  0  4  0  maxseq_ 29
- 6.300047 0 2 tcp 1040 ------- 1 0.0 4.0 28 56
- 6.300049 0 2 tcp 1040 ------- 1 0.0 4.0 29 57
r 6.600009 2 1 ack 40 ------- 2 5.0 1.0 1 30
r 6.600013 2 1 ack 40 ------- 2 5.0 1.0 2 31
6.60001  1  0  5  0  ack_ 2
6.60001  1  0  5  0  rtt_ 3.300 
+ 6.600013 1 2 tcp 1040 ------- 2 1.0 5.0 5 58
- 6.600013 1 2 tcp 1040 ------- 2 1.0 5.0 5 58
6.60001  1  0  5  0  maxseq_ 5
r 6.600018 2 1 ack 40 ------- 2 5.0 1.0 3 32
6.60002  1  0  5  0  ack_ 3
+ 6.600018 1 2 tcp 1040 ------- 2 1.0 5.0 6 59
- 6.600018 1 2 tcp 1040 ------- 2 1.0 5.0 6 59
6.60002  1  0  5  0  maxseq_ 6
r 6.600022 2 1 ack 40 ------- 2 5.0 1.0 4 33
6.60002  1  0  5  0  ack_ 4
+ 6.600022 1 2 tcp 1040 ------- 2 1.0 5.0 7 60
- 6.600022 1 2 tcp 1040 ------- 2 1.0 5.0 7 60
6.60002  1  0  5  0  maxseq_ 7
r 6.80002 0 2 tcp 1040 ------- 1 0.0 4.0 14 42
+ 6.80002 2 3 tcp 1040 ------- 1 0.0 4.0 14 42
- 6.80002 2 3 tcp 1040 ------- 1 0.0 4.0 14 42
r 6.800022 0 2 tcp 1040 ------- 1 0.0 4.0 15 43
+ 6.800022 2 3 tcp 1040 ------- 1 0.0 4.0 15 43
r 6.800024 0 2 tcp 1040 ------- 1 0.0 4.0 16 44
+ 6.800024 2 3 tcp 1040 ------- 1 0.0 4.0 16 44
- 6.800024 2 3 tcp 1040 ------- 1 0.0 4.0 15 43
r 6.800026 0 2 tcp 1040 ------- 1 0.0 4.0 17 45
+ 6.800026 2 3 tcp 1040 ------- 1 0.0 4.0 17 45
r 6.800028 0 2 tcp 1040 ------- 1 0.0 4.0 18 46
+ 6.800028 2 3 tcp 1040 ------- 1 0.0 4.0 18 46
- 6.800028 2 3 tcp 1040 ------- 1 0.0 4.0 16 44
r 6.80003 0 2 tcp 1040 ------- 1 0.0 4.0 19 47
+ 6.80003 2 3 tcp 1040 ------- 1 0.0 4.0 19 47
r 6.800032 0 2 tcp 1040 ------- 1 0.0 4.0 20 48
+ 6.800032 2 3 tcp 1040 ------- 1 0.0 4.0 20 48
- 6.800032 2 3 tcp 1040 ------- 1 0.0 4.0 17 45
r 6.800035 0 2 tcp 1040 ------- 1 0.0 4.0 21 49
+ 6.800035 2 3 tcp 1040 ------- 1 0.0 4.0 21 49
r 6.800037 0 2 tcp 1040 ------- 1 0.0 4.0 22 50
+ 6.800037 2 3 tcp 1040 ------- 1 0.0 4.0 22 50
- 6.800037 2 3 tcp 1040 ------- 1 0.0 4.0 18 46
r 6.800039 0 2 tcp 1040 ------- 1 0.0 4.0 23 51
+ 6.800039 2 3 tcp 1040 ------- 1 0.0 4.0 23 51
r 6.800041 0 2 tcp 1040 ------- 1 0.0 4.0 24 52
+ 6.800041 2 3 tcp 1040 ------- 1 0.0 4.0 24 52
d 6.800041 2 3 tcp 1040 ------- 1 0.0 4.0 24 52
- 6.800041 2 3 tcp 1040 ------- 1 0.0 4.0 19 47
r 6.800043 0 2 tcp 1040 ------- 1 0.0 4.0 25 53
+ 6.800043 2 3 tcp 1040 ------- 1 0.0 4.0 25 53
r 6.800045 0 2 tcp 1040 ------- 1 0.0 4.0 26 54
+ 6.800045 2 3 tcp 1040 ------- 1 0.0 4.0 26 54
d 6.800045 2 3 tcp 1040 ------- 1 0.0 4.0 26 54
- 6.800045 2 3 tcp 1040 ------- 1 0.0 4.0 20 48
r 6.800047 0 2 tcp 1040 ------- 1 0.0 4.0 27 55
+ 6.800047 2 3 tcp 1040 ------- 1 0.0 4.0 27 55
r 6.800049 0 2 tcp 1040 ------- 1 0.0 4.0 28 56
+ 6.800049 2 3 tcp 1040 ------- 1 0.0 4.0 28 56
d 6.800049 2 3 tcp 1040 ------- 1 0.0 4.0 28 56
- 6.800049 2 3 tcp 1040 ------- 1 0.0 4.0 21 49
r 6.800051 0 2 tcp 1040 ------- 1 0.0 4.0 29 57
+ 6.800051 2 3 tcp 1040 ------- 1 0.0 4.0 29 57
- 6.800053 2 3 tcp 1040 ------- 1 0.0 4.0 22 50
- 6.800057 2 3 tcp 1040 ------- 1 0.0 4.0 23 51
- 6.800062 2 3 tcp 1040 ------- 1 0.0 4.0 25 53
- 6.800066 2 3 tcp 1040 ------- 1 0.0 4.0 27 55
- 6.80007 2 3 tcp 1040 ------- 1 0.0 4.0 29 57
r 6.850024 2 3 tcp 1040 ------- 1 0.0 4.0 14 42
+ 6.850024 3 4 tcp 1040 ------- 1 0.0 4.0 14 42
- 6.850024 3 4 tcp 1040 ------- 1 0.0 4.0 14 42
r 6.850028 2 3 tcp 1040 ------- 1 0.0 4.0 15 43
+ 6.850028 3 4 tcp 1040 ------- 1 0.0 4.0 15 43
- 6.850028 3 4 tcp 1040 ------- 1 0.0 4.0 15 43
r 6.850032 2 3 tcp 1040 ------- 1 0.0 4.0 16 44
+ 6.850032 3 4 tcp 1040 ------- 1 0.0 4.0 16 44
- 6.850032 3 4 tcp 1040 ------- 1 0.0 4.0 16 44
r 6.850037 2 3 tcp 1040 ------- 1 0.0 4.0 17 45
+ 6.850037 3 4 tcp 1040 ------- 1 0.0 4.0 17 45
- 6.850037 3 4 tcp 1040 ------- 1 0.0 4.0 17 45
r 6.850041 2 3 tcp 1040 ------- 1 0.0 4.0 18 46
+ 6.850041 3 4 tcp 1040 ------- 1 0.0 4.0 18 46
- 6.850041 3 4 tcp 1040 ------- 1 0.0 4.0 18 46
r 6.850045 2 3 tcp 1040 ------- 1 0.0 4.0 19 47
+ 6.850045 3 4 tcp 1040 ------- 1 0.0 4.0 19 47
- 6.850045 3 4 tcp 1040 ------- 1 0.0 4.0 19 47
r 6.850049 2 3 tcp 1040 ------- 1 0.0 4.0 20 48
+ 6.850049 3 4 tcp 1040 ------- 1 0.0 4.0 20 48
- 6.850049 3 4 tcp 1040 ------- 1 0.0 4.0 20 48
r 6.850053 2 3 tcp 1040 ------- 1 0.0 4.0 21 49
+ 6.850053 3 4 tcp 1040 ------- 1 0.0 4.0 21 49
- 6.850053 3 4 tcp 1040 ------- 1 0.0 4.0 21 49
r 6.850057 2 3 tcp 1040 ------- 1 0.0 4.0 22 50
+ 6.850057 3 4 tcp 1040 ------- 1 0.0 4.0 22 50
- 6.850057 3 4 tcp 1040 ------- 1 0.0 4.0 22 50
r 6.850062 2 3 tcp 1040 ------- 1 0.0 4.0 23 51
+ 6.850062 3 4 tcp 1040 ------- 1 0.0 4.0 23 51
- 6.850062 3 4 tcp 1040 ------- 1 0.0 4.0 23 51
r 6.850066 2 3 tcp 1040 ------- 1 0.0 4.0 25 53
+ 6.850066 3 4 tcp 1040 ------- 1 0.0 4.0 25 53
- 6.850066 3 4 tcp 1040 ------- 1 0.0 4.0 25 53
r 6.85007 2 3 tcp 1040 ------- 1 0.0 4.0 27 55
+ 6.85007 3 4 tcp 1040 ------- 1 0.0 4.0 27 55
- 6.85007 3 4 tcp 1040 ------- 1 0.0 4.0 27 55
r 6.850074 2 3 tcp 1040 ------- 1 0.0 4.0 29 57
+ 6.850074 3 4 tcp 1040 ------- 1 0.0 4.0 29 57
- 6.850074 3 4 tcp 1040 ------- 1 0.0 4.0 29 57
r 7.350026 3 4 tcp 1040 ------- 1 0.0 4.0 14 42
+ 7.350026 4 3 ack 40 ------- 1 4.0 0.0 14 61
- 7.350026 4 3 ack 40 ------- 1 4.0 0.0 14 61
r 7.35003 3 4 tcp 1040 ------- 1 0.0 4.0 15 43
+ 7.35003 4 3 ack 40 ------- 1 4.0 0.0 15 62
- 7.35003 4 3 ack 40 ------- 1 4.0 0.0 15 62
r 7.350035 3 4 tcp 1040 ------- 1 0.0 4.0 16 44
+ 7.350035 4 3 ack 40 ------- 1 4.0 0.0 16 63
- 7.350035 4 3 ack 40 ------- 1 4.0 0.0 16 63
r 7.350039 3 4 tcp 1040 ------- 1 0.0 4.0 17 45
+ 7.350039 4 3 ack 40 ------- 1 4.0 0.0 17 64
- 7.350039 4 3 ack 40 ------- 1 4.0 0.0 17 64
r 7.350043 3 4 tcp 1040 ------- 1 0.0 4.0 18 46
+ 7.350043 4 3 ack 40 ------- 1 4.0 0.0 18 65
- 7.350043 4 3 ack 40 ------- 1 4.0 0.0 18 65
r 7.350047 3 4 tcp 1040 ------- 1 0.0 4.0 19 47
+ 7.350047 4 3 ack 40 ------- 1 4.0 0.0 19 66
- 7.350047 4 3 ack 40 ------- 1 4.0 0.0 19 66
r 7.350051 3 4 tcp 1040 ------- 1 0.0 4.0 20 48
+ 7.350051 4 3 ack 40 ------- 1 4.0 0.0 20 67
- 7.350051 4 3 ack 40 ------- 1 4.0 0.0 20 67
r 7.350055 3 4 tcp 1040 ------- 1 0.0 4.0 21 49
+ 7.350055 4 3 ack 40 ------- 1 4.0 0.0 21 68
- 7.350055 4 3 ack 40 ------- 1 4.0 0.0 21 68
r 7.35006 3 4 tcp 1040 ------- 1 0.0 4.0 22 50
+ 7.35006 4 3 ack 40 ------- 1 4.0 0.0 22 69
- 7.35006 4 3 ack 40 ------- 1 4.0 0.0 22 69
r 7.350064 3 4 tcp 1040 ------- 1 0.0 4.0 23 51
+ 7.350064 4 3 ack 40 ------- 1 4.0 0.0 23 70
- 7.350064 4 3 ack 40 ------- 1 4.0 0.0 23 70
r 7.350068 3 4 tcp 1040 ------- 1 0.0 4.0 25 53
+ 7.350068 4 3 ack 48 ------- 1 4.0 0.0 23 71
- 7.350068 4 3 ack 48 ------- 1 4.0 0.0 23 71
r 7.350072 3 4 tcp 1040 ------- 1 0.0 4.0 27 55
+ 7.350072 4 3 ack 56 ------- 1 4.0 0.0 23 72
- 7.350072 4 3 ack 56 ------- 1 4.0 0.0 23 72
r 7.350076 3 4 tcp 1040 ------- 1 0.0 4.0 29 57
+ 7.350076 4 3 ack 64 ------- 1 4.0 0.0 23 73
- 7.350076 4 3 ack 64 ------- 1 4.0 0.0 23 73
r 7.400016 1 2 tcp 1040 ------- 2 1.0 5.0 5 58
+ 7.400016 2 3 tcp 1040 ------- 2 1.0 5.0 5 58
- 7.400016 2 3 tcp 1040 ------- 2 1.0 5.0 5 58
r 7.40002 1 2 tcp 1040 ------- 2 1.0 5.0 6 59
+ 7.40002 2 3 tcp 1040 ------- 2 1.0 5.0 6 59
- 7.40002 2 3 tcp 1040 ------- 2 1.0 5.0 6 59
r 7.400024 1 2 tcp 1040 ------- 2 1.0 5.0 7 60
+ 7.400024 2 3 tcp 1040 ------- 2 1.0 5.0 7 60
- 7.400024 2 3 tcp 1040 ------- 2 1.0 5.0 7 60
r 7.45002 2 3 tcp 1040 ------- 2 1.0 5.0 5 58
+ 7.45002 3 5 tcp 1040 ------- 2 1.0 5.0 5 58
- 7.45002 3 5 tcp 1040 ------- 2 1.0 5.0 5 58
r 7.450024 2 3 tcp 1040 ------- 2 1.0 5.0 6 59
+ 7.450024 3 5 tcp 1040 ------- 2 1.0 5.0 6 59
- 7.450024 3 5 tcp 1040 ------- 2 1.0 5.0 6 59
r 7.450028 2 3 tcp 1040 ------- 2 1.0 5.0 7 60
+ 7.450028 3 5 tcp 1040 ------- 2 1.0 5.0 7 60
- 7.450028 3 5 tcp 1040 ------- 2 1.0 5.0 7 60
r 7.850026 4 3 ack 40 ------- 1 4.0 0.0 14 61
+ 7.850026 3 2 ack 40 ------- 1 4.0 0.0 14 61
- 7.850026 3 2 ack 40 ------- 1 4.0 0.0 14 61
r 7.85003 4 3 ack 40 ------- 1 4.0 0.0 15 62
+ 7.85003 3 2 ack 40 ------- 1 4.0 0.0 15 62
- 7.85003 3 2 ack 40 ------- 1 4.0 0.0 15 62
r 7.850035 4 3 ack 40 ------- 1 4.0 0.0 16 63
+ 7.850035 3 2 ack 40 ------- 1 4.0 0.0 16 63
- 7.850035 3 2 ack 40 ------- 1 4.0 0.0 16 63
r 7.850039 4 3 ack 40 ------- 1 4.0 0.0 17 64
+ 7.850039 3 2 ack 40 ------- 1 4.0 0.0 17 64
- 7.850039 3 2 ack 40 ------- 1 4.0 0.0 17 64
r 7.850043 4 3 ack 40 ------- 1 4.0 0.0 18 65
+ 7.850043 3 2 ack 40 ------- 1 4.0 0.0 18 65
- 7.850043 3 2 ack 40 ------- 1 4.0 0.0 18 65
r 7.850047 4 3 ack 40 ------- 1 4.0 0.0 19 66
+ 7.850047 3 2 ack 40 ------- 1 4.0 0.0 19 66
- 7.850047 3 2 ack 40 ------- 1 4.0 0.0 19 66
r 7.850051 4 3 ack 40 ------- 1 4.0 0.0 20 67
+ 7.850051 3 2 ack 40 ------- 1 4.0 0.0 20 67
- 7.850051 3 2 ack 40 ------- 1 4.0 0.0 20 67
r 7.850055 4 3 ack 40 ------- 1 4.0 0.0 21 68
+ 7.850055 3 2 ack 40 ------- 1 4.0 0.0 21 68
- 7.850055 3 2 ack 40 ------- 1 4.0 0.0 21 68
r 7.85006 4 3 ack 40 ------- 1 4.0 0.0 22 69
+ 7.85006 3 2 ack 40 ------- 1 4.0 0.0 22 69
- 7.85006 3 2 ack 40 ------- 1 4.0 0.0 22 69
r 7.850064 4 3 ack 40 ------- 1 4.0 0.0 23 70
+ 7.850064 3 2 ack 40 ------- 1 4.0 0.0 23 70
- 7.850064 3 2 ack 40 ------- 1 4.0 0.0 23 70
r 7.850068 4 3 ack 48 ------- 1 4.0 0.0 23 71
+ 7.850068 3 2 ack 48 ------- 1 4.0 0.0 23 71