V -t * -v 1.0a5 -a 0
A -t * -n 1 -p 0 -o 0x7fffffff -c 30 -a 1
A -t * -h 1 -m 1073741823 -s 0
c -t * -i 1 -n Blue
c -t * -i 2 -n Red
n -t * -a 4 -s 4 -S UP -v circle -c black -i black
n -t * -a 0 -s 0 -S UP -v circle -c black -i black
n -t * -a 5 -s 5 -S UP -v circle -c black -i black
n -t * -a 1 -s 1 -S UP -v circle -c black -i black
n -t * -a 2 -s 2 -S UP -v circle -c black -i black
n -t * -a 3 -s 3 -S UP -v circle -c black -i black
l -t * -s 0 -d 2 -S UP -r 4000000000 -D 0.5 -c black -o right-down
l -t * -s 1 -d 2 -S UP -r 4000000000 -D 0.80000000000000004 -c black -o right-up
l -t * -s 2 -d 3 -S UP -r 1000000000 -D 0.050000000000000003 -c black -o right
l -t * -s 3 -d 4 -S UP -r 4000000000 -D 0.5 -c black -o right-up
l -t * -s 3 -d 5 -S UP -r 4000000000 -D 0.80000000000000004 -c black -o right-down
+ -t 0 -s 1 -d 2 -p tcp -e 40 -c 2 -i 0 -a 2 -x {1.0 5.0 0 ------- null}
- -t 0 -s 1 -d 2 -p tcp -e 40 -c 2 -i 0 -a 2 -x {1.0 5.0 0 ------- null}
h -t 0 -s 1 -d 2 -p tcp -e 40 -c 2 -i 0 -a 2 -x {1.0 5.0 -1 ------- null}
+ -t 0 -s 0 -d 2 -p tcp -e 40 -c 1 -i 1 -a 1 -x {0.0 4.0 0 ------- null}
- -t 0 -s 0 -d 2 -p tcp -e 40 -c 1 -i 1 -a 1 -x {0.0 4.0 0 ------- null}
h -t 0 -s 0 -d 2 -p tcp -e 40 -c 1 -i 1 -a 1 -x {0.0 4.0 -1 ------- null}
r -t 0.50000008 -s 0 -d 2 -p tcp -e 40 -c 1 -i 1 -a 1 -x {0.0 4.0 0 ------- null}
+ -t 0.50000008 -s 2 -d 3 -p tcp -e 40 -c 1 -i 1 -a 1 -x {0.0 4.0 0 ------- null}
- -t 0.50000008 -s 2 -d 3 -p tcp -e 40 -c 1 -i 1 -a 1 -x {0.0 4.0 0 ------- null}
h -t 0.50000008 -s 2 -d 3 -p tcp -e 40 -c 1 -i 1 -a 1 -x {0.0 4.0 -1 ------- null}
r -t 0.5500004 -s 2 -d 3 -p tcp -e 40 -c 1 -i 1 -a 1 -x {0.0 4.0 0 ------- null}
+ -t 0.5500004 -s 3 -d 4 -p tcp -e 40 -c 1 -i 1 -a 1 -x {0.0 4.0 0 ------- null}
- -t 0.5500004 -s 3 -d 4 -p tcp -e 40 -c 1 -i 1 -a 1 -x {0.0 4.0 0 ------- null}
h -t 0.5500004 -s 3 -d 4 -p tcp -e 40 -c 1 -i 1 -a 1 -x {0.0 4.0 -1 ------- null}
r -t 0.80000008 -s 1 -d 2 -p tcp -e 40 -c 2 -i 0 -a 2 -x {1.0 5.0 0 ------- null}
+ -t 0.80000008 -s 2 -d 3 -p tcp -e 40 -c 2 -i 0 -a 2 -x {1.0 5.0 0 ------- null}
- -t 0.80000008 -s 2 -d 3 -p tcp -e 40 -c 2 -i 0 -a 2 -x {1.0 5.0 0 ------- null}
h -t 0.80000008 -s 2 -d 3 -p tcp -e 40 -c 2 -i 0 -a 2 -x {1.0 5.0 -1 ------- null}
r -t 0.8500004 -s 2 -d 3 -p tcp -e 40 -c 2 -i 0 -a 2 -x {1.0 5.0 0 ------- null}
+ -t 0.8500004 -s 3 -d 5 -p tcp -e 40 -c 2 -i 0 -a 2 -x {1.0 5.0 0 ------- null}
- -t 0.8500004 -s 3 -d 5 -p tcp -e 40 -c 2 -i 0 -a 2 -x {1.0 5.0 0 ------- null}
h -t 0.8500004 -s 3 -d 5 -p tcp -e 40 -c 2 -i 0 -a 2 -x {1.0 5.0 -1 ------- null}
r -t 1.05000048 -s 3 -d 4 -p tcp -e 40 -c 1 -i 1 -a 1 -x {0.0 4.0 0 ------- null}
+ -t 1.05000048 -s 4 -d 3 -p ack -e 40 -c 1 -i 2 -a 1 -x {4.0 0.0 0 ------- null}
- -t 1.05000048 -s 4 -d 3 -p ack -e 40 -c 1 -i 2 -a 1 -x {4.0 0.0 0 ------- null}
h -t 1.05000048 -s 4 -d 3 -p ack -e 40 -c 1 -i 2 -a 1 -x {4.0 0.0 -1 ------- null}
r -t 1.55000056 -s 4 -d 3 -p ack -e 40 -c 1 -i 2 -a 1 -x {4.0 0.0 0 ------- null}
+ -t 1.55000056 -s 3 -d 2 -p ack -e 40 -c 1 -i 2 -a 1 -x {4.0 0.0 0 ------- null}
- -t 1.55000056 -s 3 -d 2 -p ack -e 40 -c 1 -i 2 -a 1 -x {4.0 0.0 0 ------- null}
h -t 1.55000056 -s 3 -d 2 -p ack -e 40 -c 1 -i 2 -a 1 -x {4.0 0.0 -1 ------- null}
r -t 1.60000088 -s 3 -d 2 -p ack -e 40 -c 1 -i 2 -a 1 -x {4.0 0.0 0 ------- null}
+ -t 1.60000088 -s 2 -d 0 -p ack -e 40 -c 1 -i 2 -a 1 -x {4.0 0.0 0 ------- null}
- -t 1.60000088 -s 2 -d 0 -p ack -e 40 -c 1 -i 2 -a 1 -x {4.0 0.0 0 ------- null}
h -t 1.60000088 -s 2 -d 0 -p ack -e 40 -c 1 -i 2 -a 1 -x {4.0 0.0 -1 ------- null}
r -t 1.65000048 -s 3 -d 5 -p tcp -e 40 -c 2 -i 0 -a 2 -x {1.0 5.0 0 ------- null}
+ -t 1.65000048 -s 5 -d 3 -p ack -e 40 -c 2 -i 3 -a 2 -x {5.0 1.0 0 ------- null}
- -t 1.65000048 -s 5 -d 3 -p ack -e 40 -c 2 -i 3 -a 2 -x {5.0 1.0 0 ------- null}
h -t 1.65000048 -s 5 -d 3 -p ack -e 40 -c 2 -i 3 -a 2 -x {5.0 1.0 -1 ------- null}
r -t 2.10000096 -s 2 -d 0 -p ack -e 40 -c 1 -i 2 -a 1 -x {4.0 0.0 0 ------- null}
+ -t 2.10000096 -s 0 -d 2 -p tcp -e 1040 -c 1 -i 4 -a 1 -x {0.0 4.0 1 ------- null}
- -t 2.10000096 -s 0 -d 2 -p tcp -e 1040 -c 1 -i 4 -a 1 -x {0.0 4.0 1 ------- null}
h -t 2.10000096 -s 0 -d 2 -p tcp -e 1040 -c 1 -i 4 -a 1 -x {0.0 4.0 -1 ------- null}
+ -t 2.10000096 -s 0 -d 2 -p tcp -e 1040 -c 1 -i 5 -a 1 -x {0.0 4.0 2 ------- null}
- -t 2.10000304 -s 0 -d 2 -p tcp -e 1040 -c 1 -i 5 -a 1 -x {0.0 4.0 2 ------- null}
h -t 2.10000304 -s 0 -d 2 -p tcp -e 1040 -c 1 -i 5 -a 1 -x {0.0 4.0 -1 ------- null}
r -t 2.45000056 -s 5 -d 3 -p ack -e 40 -c 2 -i 3 -a 2 -x {5.0 1.0 0 ------- null}
+ -t 2.45000056 -s 3 -d 2 -p ack -e 40 -c 2 -i 3 -a 2 -x {5.0 1.0 0 ------- null}
- -t 2.45000056 -s 3 -d 2 -p ack -e 40 -c 2 -i 3 -a 2 -x {5.0 1.0 0 ------- null}
h -t 2.45000056 -s 3 -d 2 -p ack -e 40 -c 2 -i 3 -a 2 -x {5.0 1.0 -1 ------- null}
r -t 2.50000088 -s 3 -d 2 -p ack -e 40 -c 2 -i 3 -a 2 -x {5.0 1.0 0 ------- null}
+ -t 2.50000088 -s 2 -d 1 -p ack -e 40 -c 2 -i 3 -a 2 -x {5.0 1.0 0 ------- null}
- -t 2.50000088 -s 2 -d 1 -p ack -e 40 -c 2 -i 3 -a 2 -x {5.0 1.0 0 ------- null}
h -t 2.50000088 -s 2 -d 1 -p ack -e 40 -c 2 -i 3 -a 2 -x {5.0 1.0 -1 ------- null}
r -t 2.60000304 -s 0 -d 2 -p tcp -e 1040 -c 1 -i 4 -a 1 -x {0.0 4.0 1 ------- null}
+ -t 2.60000304 -s 2 -d 3 -p tcp -e 1040 -c 1 -i 4 -a 1 -x {0.0 4.0 1 ------- null}
- -t 2.60000304 -s 2 -d 3 -p tcp -e 1040 -c 1 -i 4 -a 1 -x {0.0 4.0 1 ------- null}
h -t 2.60000304 -s 2 -d 3 -p tcp -e 1040 -c 1 -i 4 -a 1 -x {0.0 4.0 -1 ------- null}
r -t 2.60000512 -s 0 -d 2 -p tcp -e 1040 -c 1 -i 5 -a 1 -x {0.0 4.0 2 ------- null}
+ -t 2.60000512 -s 2 -d 3 -p tcp -e 1040 -c 1 -i 5 -a 1 -x {0.0 4.0 2 ------- null}
- -t 2.60001136 -s 2 -d 3 -p tcp -e 1040 -c 1 -i 5 -a 1 -x {0.0 4.0 2 ------- null}
h -t 2.60001136 -s 2 -d 3 -p tcp -e 1040 -c 1 -i 5 -a 1 -x {0.0 4.0 -1 ------- null}
r -t 2.65001136 -s 2 -d 3 -p tcp -e 1040 -c 1 -i 4 -a 1 -x {0.0 4.0 1 ------- null}
+ -t 2.65001136 -s 3 -d 4 -p tcp -e 1040 -c 1 -i 4 -a 1 -x {0.0 4.0 1 ------- null}
- -t 2.65001136 -s 3 -d 4 -p tcp -e 1040 -c 1 -i 4 -a 1 -x {0.0 4.0 1 ------- null}
h -t 2.65001136 -s 3 -d 4 -p tcp -e 1040 -c 1 -i 4 -a 1 -x {0.0 4.0 -1 ------- null}
r -t 2.65001968 -s 2 -d 3 -p tcp -e 1040 -c 1 -i 5 -a 1 -x {0.0 4.0 2 ------- null}
+ -t 2.65001968 -s 3 -d 4 -p tcp -e 1040 -c 1 -i 5 -a 1 -x {0.0 4.0 2 ------- null}
- -t 2.65001968 -s 3 -d 4 -p tcp -e 1040 -c 1 -i 5 -a 1 -x {0.0 4.0 2 ------- null}
h -t 2.65001968 -s 3 -d 4 -p tcp -e 1040 -c 1 -i 5 -a 1 -x {0.0 4.0 -1 ------- null}
+ -t 3 -s 1 -d 2 -p tcp -e 40 -c 2 -i 6 -a 2 -x {1.0 5.0 0 ---A--- null}
- -t 3 -s 1 -d 2 -p tcp -e 40 -c 2 -i 6 -a 2 -x {1.0 5.0 0 ---A--- null}
h -t 3 -s 1 -d 2 -p tcp -e 40 -c 2 -i 6 -a 2 -x {1.0 5.0 -1 ---A--- null}
r -t 3.15001344 -s 3 -d 4 -p tcp -e 1040 -c 1 -i 4 -a 1 -x {0.0 4.0 1 ------- null}
+ -t 3.15001344 -s 4 -d 3 -p ack -e 40 -c 1 -i 7 -a 1 -x {4.0 0.0 1 ------- null}
- -t 3.15001344 -s 4 -d 3 -p ack -e 40 -c 1 -i 7 -a 1 -x {4.0 0.0 1 ------- null}
h -t 3.15001344 -s 4 -d 3 -p ack -e 40 -c 1 -i 7 -a 1 -x {4.0 0.0 -1 ------- null}
r -t 3.15002176 -s 3 -d 4 -p tcp -e 1040 -c 1 -i 5 -a 1 -x {0.0 4.0 2 ------- null}
+ -t 3.15002176 -s 4 -d 3 -p ack -e 40 -c 1 -i 8 -a 1 -x {4.0 0.0 2 ------- null}
- -t 3.15002176 -s 4 -d 3 -p ack -e 40 -c 1 -i 8 -a 1 -x {4.0 0.0 2 ------- null}
h -t 3.15002176 -s 4 -d 3 -p ack -e 40 -c 1 -i 8 -a 1 -x {4.0 0.0 -1 ------- null}
r -t 3.30000096 -s 2 -d 1 -p ack -e 40 -c 2 -i 3 -a 2 -x {5.0 1.0 0 ------- null}
+ -t 3.30000096 -s 1 -d 2 -p tcp -e 1040 -c 2 -i 9 -a 2 -x {1.0 5.0 1 ------- null}
- -t 3.30000096 -s 1 -d 2 -p tcp -e 1040 -c 2 -i 9 -a 2 -x {1.0 5.0 1 ------- null}
h -t 3.30000096 -s 1 -d 2 -p tcp -e 1040 -c 2 -i 9 -a 2 -x {1.0 5.0 -1 ------- null}
r -t 3.65001352 -s 4 -d 3 -p ack -e 40 -c 1 -i 7 -a 1 -x {4.0 0.0 1 ------- null}
+ -t 3.65001352 -s 3 -d 2 -p ack -e 40 -c 1 -i 7 -a 1 -x {4.0 0.0 1 ------- null}
- -t 3.65001352 -s 3 -d 2 -p ack -e 40 -c 1 -i 7 -a 1 -x {4.0 0.0 1 ------- null}
h -t 3.65001352 -s 3 -d 2 -p ack -e 40 -c 1 -i 7 -a 1 -x {4.0 0.0 -1 ------- null}
r -t 3.65002184 -s 4 -d 3 -p ack -e 40 -c 1 -i 8 -a 1 -x {4.0 0.0 2 ------- null}
+ -t 3.65002184 -s 3 -d 2 -p ack -e 40 -c 1 -i 8 -a 1 -x {4.0 0.0 2 ------- null}
- -t 3.65002184 -s 3 -d 2 -p ack -e 40 -c 1 -i 8 -a 1 -x {4.0 0.0 2 ------- null}
h -t 3.65002184 -s 3 -d 2 -p ack -e 40 -c 1 -i 8 -a 1 -x {4.0 0.0 -1 ------- null}
r -t 3.70001384 -s 3 -d 2 -p ack -e 40 -c 1 -i 7 -a 1 -x {4.0 0.0 1 ------- null}
+ -t 3.70001384 -s 2 -d 0 -p ack -e 40 -c 1 -i 7 -a 1 -x {4.0 0.0 1 ------- null}
- -t 3.70001384 -s 2 -d 0 -p ack -e 40 -c 1 -i 7 -a 1 -x {4.0 0.0 1 ------- null}
h -t 3.70001384 -s 2 -d 0 -p ack -e 40 -c 1 -i 7 -a 1 -x {4.0 0.0 -1 ------- null}
r -t 3.70002216 -s 3 -d 2 -p ack -e 40 -c 1 -i 8 -a 1 -x {4.0 0.0 2 ------- null}
+ -t 3.70002216 -s 2 -d 0 -p ack -e 40 -c 1 -i 8 -a 1 -x {4.0 0.0 2 ------- null}
- -t 3.70002216 -s 2 -d 0 -p ack -e 40 -c 1 -i 8 -a 1 -x {4.0 0.0 2 ------- null}
h -t 3.70002216 -s 2 -d 0 -p ack -e 40 -c 1 -i 8 -a 1 -x {4.0 0.0 -1 ------- null}
r -t 3.80000008 -s 1 -d 2 -p tcp -e 40 -c 2 -i 6 -a 2 -x {1.0 5.0 0 ---A--- null}
+ -t 3.80000008 -s 2 -d 3 -p tcp -e 40 -c 2 -i 6 -a 2 -x {1.0 5.0 0 ---A--- null}
- -t 3.80000008 -s 2 -d 3 -p tcp -e 40 -c 2 -i 6 -a 2 -x {1.0 5.0 0 ---A--- null}
h -t 3.80000008 -s 2 -d 3 -p tcp -e 40 -c 2 -i 6 -a 2 -x {1.0 5.0 -1 ---A--- null}
r -t 3.8500004 -s 2 -d 3 -p tcp -e 40 -c 2 -i 6 -a 2 -x {1.0 5.0 0 ---A--- null}
+ -t 3.8500004 -s 3 -d 5 -p tcp -e 40 -c 2 -i 6 -a 2 -x {1.0 5.0 0 ---A--- null}
- -t 3.8500004 -s 3 -d 5 -p tcp -e 40 -c 2 -i 6 -a 2 -x {1.0 5.0 0 ---A--- null}
h -t 3.8500004 -s 3 -d 5 -p tcp -e 40 -c 2 -i 6 -a 2 -x {1.0 5.0 -1 ---A--- null}
r -t 4.10000304 -s 1 -d 2 -p tcp -e 1040 -c 2 -i 9 -a 2 -x {1.0 5.0 1 ------- null}
+ -t 4.10000304 -s 2 -d 3 -p tcp -e 1040 -c 2 -i 9 -a 2 -x {1.0 5.0 1 ------- null}
- -t 4.10000304 -s 2 -d 3 -p tcp -e 1040 -c 2 -i 9 -a 2 -x {1.0 5.0 1 ------- null}
h -t 4.10000304 -s 2 -d 3 -p tcp -e 1040 -c 2 -i 9 -a 2 -x {1.0 5.0 -1 ------- null}
r -t 4.15001136 -s 2 -d 3 -p tcp -e 1040 -c 2 -i 9 -a 2 -x {1.0 5.0 1 ------- null}
+ -t 4.15001136 -s 3 -d 5 -p tcp -e 1040 -c 2 -i 9 -a 2 -x {1.0 5.0 1 ------- null}
- -t 4.15001136 -s 3 -d 5 -p tcp -e 1040 -c 2 -i 9 -a 2 -x {1.0 5.0 1 ------- null}
h -t 4.15001136 -s 3 -d 5 -p tcp -e 1040 -c 2 -i 9 -a 2 -x {1.0 5.0 -1 ------- null}
r -t 4.20001392 -s 2 -d 0 -p ack -e 40 -c 1 -i 7 -a 1 -x {4.0 0.0 1 ------- null}
+ -t 4.20001392 -s 0 -d 2 -p tcp -e 1040 -c 1 -i 10 -a 1 -x {0.0 4.0 3 ------- null}
- -t 4.20001392 -s 0 -d 2 -p tcp -e 1040 -c 1 -i 10 -a 1 -x {0.0 4.0 3 ------- null}
h -t 4.20001392 -s 0 -d 2 -p tcp -e 1040 -c 1 -i 10 -a 1 -x {0.0 4.0 -1 ------- null}
+ -t 4.20001392 -s 0 -d 2 -p tcp -e 1040 -c 1 -i 11 -a 1 -x {0.0 4.0 4 ------- null}
- -t 4.200016 -s 0 -d 2 -p tcp -e 1040 -c 1 -i 11 -a 1 -x {0.0 4.0 4 ------- null}
h -t 4.200016 -s 0 -d 2 -p tcp -e 1040 -c 1 -i 11 -a 1 -x {0.0 4.0 -1 ------- null}
r -t 4.20002224 -s 2 -d 0 -p ack -e 40 -c 1 -i 8 -a 1 -x {4.0 0.0 2 ------- null}
+ -t 4.20002224 -s 0 -d 2 -p tcp -e 1040 -c 1 -i 12 -a 1 -x {0.0 4.0 5 ------- null}
- -t 4.20002224 -s 0 -d 2 -p tcp -e 1040 -c 1 -i 12 -a 1 -x {0.0 4.0 5 ------- null}
h -t 4.20002224 -s 0 -d 2 -p tcp -e 1040 -c 1 -i 12 -a 1 -x {0.0 4.0 -1 ------- null}
+ -t 4.20002224 -s 0 -d 2 -p tcp -e 1040 -c 1 -i 13 -a 1 -x {0.0 4.0 6 ------- null}
- -t 4.20002432 -s 0 -d 2 -p tcp -e 1040 -c 1 -i 13 -a 1 -x {0.0 4.0 6 ------- null}
h -t 4.20002432 -s 0 -d 2 -p tcp -e 1040 -c 1 -i 13 -a 1 -x {0.0 4.0 -1 ------- null}
r -t 4.65000048 -s 3 -d 5 -p tcp -e 40 -c 2 -i 6 -a 2 -x {1.0 5.0 0 ---A--- null}
+ -t 4.65000048 -s 5 -d 3 -p ack -e 40 -c 2 -i 14 -a 2 -x {5.0 1.0 0 ------- null}
- -t 4.65000048 -s 5 -d 3 -p ack -e 40 -c 2 -i 14 -a 2 -x {5.0 1.0 0 ------- null}
h -t 4.65000048 -s 5 -d 3 -p ack -e 40 -c 2 -i 14 -a 2 -x {5.0 1.0 -1 ------- null}
r -t 4.700016 -s 0 -d 2 -p tcp -e 1040 -c 1 -i 10 -a 1 -x {0.0 4.0 3 ------- null}
+ -t 4.700016 -s 2 -d 3 -p tcp -e 1040 -c 1 -i 10 -a 1 -x {0.0 4.0 3 ------- null}
- -t 4.700016 -s 2 -d 3 -p tcp -e 1040 -c 1 -i 10 -a 1 -x {0.0 4.0 3 ------- null}
h -t 4.700016 -s 2 -d 3 -p tcp -e 1040 -c 1 -i 10 -a 1 -x {0.0 4.0 -1 ------- null}
r -t 4.70001808 -s 0 -d 2 -p tcp -e 1040 -c 1 -i 11 -a 1 -x {0.0 4.0 4 ------- null}
+ -t 4.70001808 -s 2 -d 3 -p tcp -e 1040 -c 1 -i 11 -a 1 -x {0.0 4.0 4 ------- null}
r -t 4.70002432 -s 0 -d 2 -p tcp -e 1040 -c 1 -i 12 -a 1 -x {0.0 4.0 5 ------- null}
+ -t 4.70002432 -s 2 -d 3 -p tcp -e 1040 -c 1 -i 12 -a 1 -x {0.0 4.0 5 ------- null}
- -t 4.70002432 -s 2 -d 3 -p tcp -e 1040 -c 1 -i 11 -a 1 -x {0.0 4.0 4 ------- null}
h -t 4.70002432 -s 2 -d 3 -p tcp -e 1040 -c 1 -i 11 -a 1 -x {0.0 4.0 -1 ------- null}
r -t 4.7000264 -s 0 -d 2 -p tcp -e 1040 -c 1 -i 13 -a 1 -x {0.0 4.0 6 ------- null}
+ -t 4.7000264 -s 2 -d 3 -p tcp -e 1040 -c 1 -i 13 -a 1 -x {0.0 4.0 6 ------- null}
- -t 4.70003264 -s 2 -d 3 -p tcp -e 1040 -c 1 -i 12 -a 1 -x {0.0 4.0 5 ------- null}
h -t 4.70003264 -s 2 -d 3 -p tcp -e 1040 -c 1 -i 12 -a 1 -x {0.0 4.0 -1 ------- null}
- -t 4.70004096 -s 2 -d 3 -p tcp -e 1040 -c 1 -i 13 -a 1 -x {0.0 4.0 6 ------- null}
h -t 4.70004096 -s 2 -d 3 -p tcp -e 1040 -c 1 -i 13 -a 1 -x {0.0 4.0 -1 ------- null}
r -t 4.75002432 -s 2 -d 3 -p tcp -e 1040 -c 1 -i 10 -a 1 -x {0.0 4.0 3 ------- null}
+ -t 4.75002432 -s 3 -d 4 -p tcp -e 1040 -c 1 -i 10 -a 1 -x {0.0 4.0 3 ------- null}
- -t 4.75002432 -s 3 -d 4 -p tcp -e 1040 -c 1 -i 10 -a 1 -x {0.0 4.0 3 ------- null}
h -t 4.75002432 -s 3 -d 4 -p tcp -e 1040 -c 1 -i 10 -a 1 -x {0.0 4.0 -1 ------- null}
r -t 4.75003264 -s 2 -d 3 -p tcp -e 1040 -c 1 -i 11 -a 1 -x {0.0 4.0 4 ------- null}
+ -t 4.75003264 -s 3 -d 4 -p tcp -e 1040 -c 1 -i 11 -a 1 -x {0.0 4.0 4 ------- null}
- -t 4.75003264 -s 3 -d 4 -p tcp -e 1040 -c 1 -i 11 -a 1 -x {0.0 4.0 4 ------- null}
h -t 4.75003264 -s 3 -d 4 -p tcp -e 1040 -c 1 -i 11 -a 1 -x {0.0 4.0 -1 ------- null}
r -t 4.75004096 -s 2 -d 3 -p tcp -e 1040 -c 1 -i 12 -a 1 -x {0.0 4.0 5 ------- null}
+ -t 4.75004096 -s 3 -d 4 -p tcp -e 1040 -c 1 -i 12 -a 1 -x {0.0 4.0 5 ------- null}
- -t 4.75004096 -s 3 -d 4 -p tcp -e 1040 -c 1 -i 12 -a 1 -x {0.0 4.0 5 ------- null}
h -t 4.75004096 -s 3 -d 4 -p tcp -e 1040 -c 1 -i 12 -a 1 -x {0.0 4.0 -1 ------- null}
r -t 4.75004928 -s 2 -d 3 -p tcp -e 1040 -c 1 -i 13 -a 1 -x {0.0 4.0 6 ------- null}
+ -t 4.75004928 -s 3 -d 4 -p tcp -e 1040 -c 1 -i 13 -a 1 -x {0.0 4.0 6 ------- null}
- -t 4.75004928 -s 3 -d 4 -p tcp -e 1040 -c 1 -i 13 -a 1 -x {0.0 4.0 6 ------- null}
h -t 4.75004928 -s 3 -d 4 -p tcp -e 1040 -c 1 -i 13 -a 1 -x {0.0 4.0 -1 ------- null}
r -t 4.95001344 -s 3 -d 5 -p tcp -e 1040 -c 2 -i 9 -a 2 -x {1.0 5.0 1 ------- null}
+ -t 4.95001344 -s 5 -d 3 -p ack -e 40 -c 2 -i 15 -a 2 -x {5.0 1.0 1 ------- null}
- -t 4.95001344 -s 5 -d 3 -p ack -e 40 -c 2 -i 15 -a 2 -x {5.0 1.0 1 ------- null}
h -t 4.95001344 -s 5 -d 3 -p ack -e 40 -c 2 -i 15 -a 2 -x {5.0 1.0 -1 ------- null}
r -t 5.2500264 -s 3 -d 4 -p tcp -e 1040 -c 1 -i 10 -a 1 -x {0.0 4.0 3 ------- null}
+ -t 5.2500264 -s 4 -d 3 -p ack -e 40 -c 1 -i 16 -a 1 -x {4.0 0.0 3 ------- null}
- -t 5.2500264 -s 4 -d 3 -p ack -e 40 -c 1 -i 16 -a 1 -x {4.0 0.0 3 ------- null}
h -t 5.2500264 -s 4 -d 3 -p ack -e 40 -c 1 -i 16 -a 1 -x {4.0 0.0 -1 ------- null}
r -t 5.25003472 -s 3 -d 4 -p tcp -e 1040 -c 1 -i 11 -a 1 -x {0.0 4.0 4 ------- null}
+ -t 5.25003472 -s 4 -d 3 -p ack -e 40 -c 1 -i 17 -a 1 -x {4.0 0.0 4 ------- null}
- -t 5.25003472 -s 4 -d 3 -p ack -e 40 -c 1 -i 17 -a 1 -x {4.0 0.0 4 ------- null}
h -t 5.25003472 -s 4 -d 3 -p ack -e 40 -c 1 -i 17 -a 1 -x {4.0 0.0 -1 ------- null}
r -t 5.25004304 -s 3 -d 4 -p tcp -e 1040 -c 1 -i 12 -a 1 -x {0.0 4.0 5 ------- null}
+ -t 5.25004304 -s 4 -d 3 -p ack -e 40 -c 1 -i 18 -a 1 -x {4.0 0.0 5 ------- null}
- -t 5.25004304 -s 4 -d 3 -p ack -e 40 -c 1 -i 18 -a 1 -x {4.0 0.0 5 ------- null}
h -t 5.25004304 -s 4 -d 3 -p ack -e 40 -c 1 -i 18 -a 1 -x {4.0 0.0 -1 ------- null}
r -t 5.25005136 -s 3 -d 4 -p tcp -e 1040 -c 1 -i 13 -a 1 -x {0.0 4.0 6 ------- null}
+ -t 5.25005136 -s 4 -d 3 -p ack -e 40 -c 1 -i 19 -a 1 -x {4.0 0.0 6 ------- null}
- -t 5.25005136 -s 4 -d 3 -p ack -e 40 -c 1 -i 19 -a 1 -x {4.0 0.0 6 ------- null}
h -t 5.25005136 -s 4 -d 3 -p ack -e 40 -c 1 -i 19 -a 1 -x {4.0 0.0 -1 ------- null}
r -t 5.45000056 -s 5 -d 3 -p ack -e 40 -c 2 -i 14 -a 2 -x {5.0 1.0 0 ------- null}
+ -t 5.45000056 -s 3 -d 2 -p ack -e 40 -c 2 -i 14 -a 2 -x {5.0 1.0 0 ------- null}
- -t 5.45000056 -s 3 -d 2 -p ack -e 40 -c 2 -i 14 -a 2 -x {5.0 1.0 0 ------- null}
h -t 5.45000056 -s 3 -d 2 -p ack -e 40 -c 2 -i 14 -a 2 -x {5.0 1.0 -1 ------- null}
r -t 5.50000088 -s 3 -d 2 -p ack -e 40 -c 2 -i 14 -a 2 -x {5.0 1.0 0 ------- null}
+ -t 5.50000088 -s 2 -d 1 -p ack -e 40 -c 2 -i 14 -a 2 -x {5.0 1.0 0 ------- null}
- -t 5.50000088 -s 2 -d 1 -p ack -e 40 -c 2 -i 14 -a 2 -x {5.0 1.0 0 ------- null}
h -t 5.50000088 -s 2 -d 1 -p ack -e 40 -c 2 -i 14 -a 2 -x {5.0 1.0 -1 ------- null}
r -t 5.75001352 -s 5 -d 3 -p ack -e 40 -c 2 -i 15 -a 2 -x {5.0 1.0 1 ------- null}
+ -t 5.75001352 -s 3 -d 2 -p ack -e 40 -c 2 -i 15 -a 2 -x {5.0 1.0 1 ------- null}
- -t 5.75001352 -s 3 -d 2 -p ack -e 40 -c 2 -i 15 -a 2 -x {5.0 1.0 1 ------- null}
h -t 5.75001352 -s 3 -d 2 -p ack -e 40 -c 2 -i 15 -a 2 -x {5.0 1.0 -1 ------- null}
r -t 5.75002648 -s 4 -d 3 -p ack -e 40 -c 1 -i 16 -a 1 -x {4.0 0.0 3 ------- null}
+ -t 5.75002648 -s 3 -d 2 -p ack -e 40 -c 1 -i 16 -a 1 -x {4.0 0.0 3 ------- null}
- -t 5.75002648 -s 3 -d 2 -p ack -e 40 -c 1 -i 16 -a 1 -x {4.0 0.0 3 ------- null}
h -t 5.75002648 -s 3 -d 2 -p ack -e 40 -c 1 -i 16 -a 1 -x {4.0 0.0 -1 ------- null}
r -t 5.7500348 -s 4 -d 3 -p ack -e 40 -c 1 -i 17 -a 1 -x {4.0 0.0 4 ------- null}
+ -t 5.7500348 -s 3 -d 2 -p ack -e 40 -c 1 -i 17 -a 1 -x {4.0 0.0 4 ------- null}
- -t 5.7500348 -s 3 -d 2 -p ack -e 40 -c 1 -i 17 -a 1 -x {4.0 0.0 4 ------- null}
h -t 5.7500348 -s 3 -d 2 -p ack -e 40 -c 1 -i 17 -a 1 -x {4.0 0.0 -1 ------- null}
r -t 5.75004312 -s 4 -d 3 -p ack -e 40 -c 1 -i 18 -a 1 -x {4.0 0.0 5 ------- null}
+ -t 5.75004312 -s 3 -d 2 -p ack -e 40 -c 1 -i 18 -a 1 -x {4.0 0.0 5 ------- null}
- -t 5.75004312 -s 3 -d 2 -p ack -e 40 -c 1 -i 18 -a 1 -x {4.0 0.0 5 ------- null}
h -t 5.75004312 -s 3 -d 2 -p ack -e 40 -c 1 -i 18 -a 1 -x {4.0 0.0 -1 ------- null}
r -t 5.75005144 -s 4 -d 3 -p ack -e 40 -c 1 -i 19 -a 1 -x {4.0 0.0 6 ------- null}
+ -t 5.75005144 -s 3 -d 2 -p ack -e 40 -c 1 -i 19 -a 1 -x {4.0 0.0 6 ------- null}
- -t 5.75005144 -s 3 -d 2 -p ack -e 40 -c 1 -i 19 -a 1 -x {4.0 0.0 6 ------- null}
h -t 5.75005144 -s 3 -d 2 -p ack -e 40 -c 1 -i 19 -a 1 -x {4.0 0.0 -1 ------- null}
r -t 5.80001384 -s 3 -d 2 -p ack -e 40 -c 2 -i 15 -a 2 -x {5.0 1.0 1 ------- null}
+ -t 5.80001384 -s 2 -d 1 -p ack -e 40 -c 2 -i 15 -a 2 -x {5.0 1.0 1 ------- null}
- -t 5.80001384 -s 2 -d 1 -p ack -e 40 -c 2 -i 15 -a 2 -x {5.0 1.0 1 ------- null}
h -t 5.80001384 -s 2 -d 1 -p ack -e 40 -c 2 -i 15 -a 2 -x {5.0 1.0 -1 ------- null}
r -t 5.8000268 -s 3 -d 2 -p ack -e 40 -c 1 -i 16 -a 1 -x {4.0 0.0 3 ------- null}
+ -t 5.8000268 -s 2 -d 0 -p ack -e 40 -c 1 -i 16 -a 1 -x {4.0 0.0 3 ------- null}
- -t 5.8000268 -s 2 -d 0 -p ack -e 40 -c 1 -i 16 -a 1 -x {4.0 0.0 3 ------- null}
h -t 5.8000268 -s 2 -d 0 -p ack -e 40 -c 1 -i 16 -a 1 -x {4.0 0.0 -1 ------- null}
r -t 5.80003512 -s 3 -d 2 -p ack -e 40 -c 1 -i 17 -a 1 -x {4.0 0.0 4 ------- null}
+ -t 5.80003512 -s 2 -d 0 -p ack -e 40 -c 1 -i 17 -a 1 -x {4.0 0.0 4 ------- null}
- -t 5.80003512 -s 2 -d 0 -p ack -e 40 -c 1 -i 17 -a 1 -x {4.0 0.0 4 ------- null}
h -t 5.80003512 -s 2 -d 0 -p ack -e 40 -c 1 -i 17 -a 1 -x {4.0 0.0 -1 ------- null}
r -t 5.80004344 -s 3 -d 2 -p ack -e 40 -c 1 -i 18 -a 1 -x {4.0 0.0 5 ------- null}
+ -t 5.80004344 -s 2 -d 0 -p ack -e 40 -c 1 -i 18 -a 1 -x {4.0 0.0 5 ------- null}
- -t 5.80004344 -s 2 -d 0 -p ack -e 40 -c 1 -i 18 -a 1 -x {4.0 0.0 5 ------- null}
h -t 5.80004344 -s 2 -d 0 -p ack -e 40 -c 1 -i 18 -a 1 -x {4.0 0.0 -1 ------- null}
r -t 5.80005176 -s 3 -d 2 -p ack -e 40 -c 1 -i 19 -a 1 -x {4.0 0.0 6 ------- null}
+ -t 5.80005176 -s 2 -d 0 -p ack -e 40 -c 1 -i 19 -a 1 -x {4.0 0.0 6 ------- null}
- -t 5.80005176 -s 2 -d 0 -p ack -e 40 -c 1 -i 19 -a 1 -x {4.0 0.0 6 ------- null}
h -t 5.80005176 -s 2 -d 0 -p ack -e 40 -c 1 -i 19 -a 1 -x {4.0 0.0 -1 ------- null}
r -t 6.30000096 -s 2 -d 1 -p ack -e 40 -c 2 -i 14 -a 2 -x {5.0 1.0 0 ------- null}
+ -t 6.30000096 -s 1 -d 2 -p tcp -e 1040 -c 2 -i 20 -a 2 -x {1.0 5.0 2 ------- null}
- -t 6.30000096 -s 1 -d 2 -p tcp -e 1040 -c 2 -i 20 -a 2 -x {1.0 5.0 2 ------- null}
h -t 6.30000096 -s 1 -d 2 -p tcp -e 1040 -c 2 -i 20 -a 2 -x {1.0 5.0 -1 ------- null}
r -t 6.30002688 -s 2 -d 0 -p ack -e 40 -c 1 -i 16 -a 1 -x {4.0 0.0 3 ------- null}
+ -t 6.30002688 -s 0 -d 2 -p tcp -e 1040 -c 1 -i 21 -a 1 -x {0.0 4.0 7 ------- null}
- -t 6.30002688 -s 0 -d 2 -p tcp -e 1040 -c 1 -i 21 -a 1 -x {0.0 4.0 7 ------- null}
h -t 6.30002688 -s 0 -d 2 -p tcp -e 1040 -c 1 -i 21 -a 1 -x {0.0 4.0 -1 ------- null}
+ -t 6.30002688 -s 0 -d 2 -p tcp -e 1040 -c 1 -i 22 -a 1 -x {0.0 4.0 8 ------- null}
- -t 6.30002896 -s 0 -d 2 -p tcp -e 1040 -c 1 -i 22 -a 1 -x {0.0 4.0 8 ------- null}
h -t 6.30002896 -s 0 -d 2 -p tcp -e 1040 -c 1 -i 22 -a 1 -x {0.0 4.0 -1 ------- null}
r -t 6.3000352 -s 2 -d 0 -p ack -e 40 -c 1 -i 17 -a 1 -x {4.0 0.0 4 ------- null}
+ -t 6.3000352 -s 0 -d 2 -p tcp -e 1040 -c 1 -i 23 -a 1 -x {0.0 4.0 9 ------- null}
- -t 6.3000352 -s 0 -d 2 -p tcp -e 1040 -c 1 -i 23 -a 1 -x {0.0 4.0 9 ------- null}
h -t 6.3000352 -s 0 -d 2 -p tcp -e 1040 -c 1 -i 23 -a 1 -x {0.0 4.0 -1 ------- null}
+ -t 6.3000352 -s 0 -d 2 -p tcp -e 1040 -c 1 -i 24 -a 1 -x {0.0 4.0 10 ------- null}
- -t 6.30003728 -s 0 -d 2 -p tcp -e 1040 -c 1 -i 24 -a 1 -x {0.0 4.0 10 ------- null}
h -t 6.30003728 -s 0 -d 2 -p tcp -e 1040 -c 1 -i 24 -a 1 -x {0.0 4.0 -1 ------- null}
r -t 6.30004352 -s 2 -d 0 -p ack -e 40 -c 1 -i 18 -a 1 -x {4.0 0.0 5 ------- null}
+ -t 6.30004352 -s 0 -d 2 -p tcp -e 1040 -c 1 -i 25 -a 1 -x {0.0 4.0 11 ------- null}
- -t 6.30004352 -s 0 -d 2 -p tcp -e 1040 -c 1 -i 25 -a 1 -x {0.0 4.0 11 ------- null}
h -t 6.30004352 -s 0 -d 2 -p tcp -e 1040 -c 1 -i 25 -a 1 -x {0.0 4.0 -1 ------- null}
+ -t 6.30004352 -s 0 -d 2 -p tcp -e 1040 -c 1 -i 26 -a 1 -x {0.0 4.0 12 ------- null}
- -t 6.3000456 -s 0 -d 2 -p tcp -e 1040 -c 1 -i 26 -a 1 -x {0.0 4.0 12 ------- null}
h -t 6.3000456 -s 0 -d 2 -p tcp -e 1040 -c 1 -i 26 -a 1 -x {0.0 4.0 -1 ------- null}
r -t 6.30005184 -s 2 -d 0 -p ack -e 40 -c 1 -i 19 -a 1 -x {4.0 0.0 6 ------- null}
+ -t 6.30005184 -s 0 -d 2 -p tcp -e 1040 -c 1 -i 27 -a 1 -x {0.0 4.0 13 ------- null}
- -t 6.30005184 -s 0 -d 2 -p tcp -e 1040 -c 1 -i 27 -a 1 -x {0.0 4.0 13 ------- null}
h -t 6.30005184 -s 0 -d 2 -p tcp -e 1040 -c 1 -i 27 -a 1 -x {0.0 4.0 -1 ------- null}
+ -t 6.30005184 -s 0 -d 2 -p tcp -e 1040 -c 1 -i 28 -a 1 -x {0.0 4.0 14 ------- null}
- -t 6.30005392 -s 0 -d 2 -p tcp -e 1040 -c 1 -i 28 -a 1 -x {0.0 4.0 14 ------- null}
h -t 6.30005392 -s 0 -d 2 -p tcp -e 1040 -c 1 -i 28 -a 1 -x {0.0 4.0 -1 ------- null}
r -t 6.60001392 -s 2 -d 1 -p ack -e 40 -c 2 -i 15 -a 2 -x {5.0 1.0 1 ------- null}
+ -t 6.60001392 -s 1 -d 2 -p tcp -e 1040 -c 2 -i 29 -a 2 -x {1.0 5.0 3 ------- null}
- -t 6.60001392 -s 1 -d 2 -p tcp -e 1040 -c 2 -i 29 -a 2 -x {1.0 5.0 3 ------- null}
h -t 6.60001392 -s 1 -d 2 -p tcp -e 1040 -c 2 -i 29 -a 2 -x {1.0 5.0 -1 ------- null}
r -t 6.80002896 -s 0 -d 2 -p tcp -e 1040 -c 1 -i 21 -a 1 -x {0.0 4.0 7 ------- null}
+ -t 6.80002896 -s 2 -d 3 -p tcp -e 1040 -c 1 -i 21 -a 1 -x {0.0 4.0 7 ------- null}
- -t 6.80002896 -s 2 -d 3 -p tcp -e 1040 -c 1 -i 21 -a 1 -x {0.0 4.0 7 ------- null}
h -t 6.80002896 -s 2 -d 3 -p tcp -e 1040 -c 1 -i 21 -a 1 -x {0.0 4.0 -1 ------- null}
r -t 6.80003104 -s 0 -d 2 -p tcp -e 1040 -c 1 -i 22 -a 1 -x {0.0 4.0 8 ------- null}
+ -t 6.80003104 -s 2 -d 3 -p tcp -e 1040 -c 1 -i 22 -a 1 -x {0.0 4.0 8 ------- null}
- -t 6.80003728 -s 2 -d 3 -p tcp -e 1040 -c 1 -i 22 -a 1 -x {0.0 4.0 8 ------- null}
h -t 6.80003728 -s 2 -d 3 -p tcp -e 1040 -c 1 -i 22 -a 1 -x {0.0 4.0 -1 ------- null}
r -t 6.80003728 -s 0 -d 2 -p tcp -e 1040 -c 1 -i 23 -a 1 -x {0.0 4.0 9 ------- null}
+ -t 6.80003728 -s 2 -d 3 -p tcp -e 1040 -c 1 -i 23 -a 1 -x {0.0 4.0 9 ------- null}
r -t 6.80003936 -s 0 -d 2 -p tcp -e 1040 -c 1 -i 24 -a 1 -x {0.0 4.0 10 ------- null}
+ -t 6.80003936 -s 2 -d 3 -p tcp -e 1040 -c 1 -i 24 -a 1 -x {0.0 4.0 10 ------- null}
r -t 6.8000456 -s 0 -d 2 -p tcp -e 1040 -c 1 -i 25 -a 1 -x {0.0 4.0 11 ------- null}
+ -t 6.8000456 -s 2 -d 3 -p tcp -e 1040 -c 1 -i 25 -a 1 -x {0.0 4.0 11 ------- null}
- -t 6.8000456 -s 2 -d 3 -p tcp -e 1040 -c 1 -i 23 -a 1 -x {0.0 4.0 9 ------- null}
h -t 6.8000456 -s 2 -d 3 -p tcp -e 1040 -c 1 -i 23 -a 1 -x {0.0 4.0 -1 ------- null}
r -t 6.80004768 -s 0 -d 2 -p tcp -e 1040 -c 1 -i 26 -a 1 -x {0.0 4.0 12 ------- null}
+ -t 6.80004768 -s 2 -d 3 -p tcp -e 1040 -c 1 -i 26 -a 1 -x {0.0 4.0 12 ------- null}
- -t 6.80005392 -s 2 -d 3 -p tcp -e 1040 -c 1 -i 24 -a 1 -x {0.0 4.0 10 ------- null}
h -t 6.80005392 -s 2 -d 3 -p tcp -e 1040 -c 1 -i 24 -a 1 -x {0.0 4.0 -1 ------- null}
r -t 6.80005392 -s 0 -d 2 -p tcp -e 1040 -c 1 -i 27 -a 1 -x {0.0 4.0 13 ------- null}
+ -t 6.80005392 -s 2 -d 3 -p tcp -e 1040 -c 1 -i 27 -a 1 -x {0.0 4.0 13 ------- null}
r -t 6.800056 -s 0 -d 2 -p tcp -e 1040 -c 1 -i 28 -a 1 -x {0.0 4.0 14 ------- null}
+ -t 6.800056 -s 2 -d 3 -p tcp -e 1040 -c 1 -i 28 -a 1 -x {0.0 4.0 14 ------- null}
- -t 6.80006224 -s 2 -d 3 -p tcp -e 1040 -c 1 -i 25 -a 1 -x {0.0 4.0 11 ------- null}
h -t 6.80006224 -s 2 -d 3 -p tcp -e 1040 -c 1 -i 25 -a 1 -x {0.0 4.0 -1 ------- null}
- -t 6.80007056 -s 2 -d 3 -p tcp -e 1040 -c 1 -i 26 -a 1 -x {0.0 4.0 12 ------- null}
h -t 6.80007056 -s 2 -d 3 -p tcp -e 1040 -c 1 -i 26 -a 1 -x {0.0 4.0 -1 ------- null}
- -t 6.80007888 -s 2 -d 3 -p tcp -e 1040 -c 1 -i 27 -a 1 -x {0.0 4.0 13 ------- null}
h -t 6.80007888 -s 2 -d 3 -p tcp -e 1040 -c 1 -i 27 -a 1 -x {0.0 4.0 -1 ------- null}
- -t 6.8000872 -s 2 -d 3 -p tcp -e 1040 -c 1 -i 28 -a 1 -x {0.0 4.0 14 ------- null}
h -t 6.8000872 -s 2 -d 3 -p tcp -e 1040 -c 1 -i 28 -a 1 -x {0.0 4.0 -1 ------- null}
r -t 6.85003728 -s 2 -d 3 -p tcp -e 1040 -c 1 -i 21 -a 1 -x {0.0 4.0 7 ------- null}
+ -t 6.85003728 -s 3 -d 4 -p tcp -e 1040 -c 1 -i 21 -a 1 -x {0.0 4.0 7 ------- null}
- -t 6.85003728 -s 3 -d 4 -p tcp -e 1040 -c 1 -i 21 -a 1 -x {0.0 4.0 7 ------- null}
h -t 6.85003728 -s 3 -d 4 -p tcp -e 1040 -c 1 -i 21 -a 1 -x {0.0 4.0 -1 ------- null}
r -t 6.8500456 -s 2 -d 3 -p tcp -e 1040 -c 1 -i 22 -a 1 -x {0.0 4.0 8 ------- null}
+ -t 6.8500456 -s 3 -d 4 -p tcp -e 1040 -c 1 -i 22 -a 1 -x {0.0 4.0 8 ------- null}
- -t 6.8500456 -s 3 -d 4 -p tcp -e 1040 -c 1 -i 22 -a 1 -x {0.0 4.0 8 ------- null}
h -t 6.8500456 -s 3 -d 4 -p tcp -e 1040 -c 1 -i 22 -a 1 -x {0.0 4.0 -1 ------- null}
r -t 6.85005392 -s 2 -d 3 -p tcp -e 1040 -c 1 -i 23 -a 1 -x {0.0 4.0 9 ------- null}
+ -t 6.85005392 -s 3 -d 4 -p tcp -e 1040 -c 1 -i 23 -a 1 -x {0.0 4.0 9 ------- null}
- -t 6.85005392 -s 3 -d 4 -p tcp -e 1040 -c 1 -i 23 -a 1 -x {0.0 4.0 9 ------- null}
h -t 6.85005392 -s 3 -d 4 -p tcp -e 1040 -c 1 -i 23 -a 1 -x {0.0 4.0 -1 ------- null}
r -t 6.85006224 -s 2 -d 3 -p tcp -e 1040 -c 1 -i 24 -a 1 -x {0.0 4.0 10 ------- null}
+ -t 6.85006224 -s 3 -d 4 -p tcp -e 1040 -c 1 -i 24 -a 1 -x {0.0 4.0 10 ------- null}
- -t 6.85006224 -s 3 -d 4 -p tcp -e 1040 -c 1 -i 24 -a 1 -x {0.0 4.0 10 ------- null}
h -t 6.85006224 -s 3 -d 4 -p tcp -e 1040 -c 1 -i 24 -a 1 -x {0.0 4.0 -1 ------- null}
r -t 6.85007056 -s 2 -d 3 -p tcp -e 1040 -c 1 -i 25 -a 1 -x {0.0 4.0 11 ------- null}
+ -t 6.85007056 -s 3 -d 4 -p tcp -e 1040 -c 1 -i 25 -a 1 -x {0.0 4.0 11 ------- null}
- -t 6.85007056 -s 3 -d 4 -p tcp -e 1040 -c 1 -i 25 -a 1 -x {0.0 4.0 11 ------- null}
h -t 6.85007056 -s 3 -d 4 -p tcp -e 1040 -c 1 -i 25 -a 1 -x {0.0 4.0 -1 ------- null}
r -t 6.85007888 -s 2 -d 3 -p tcp -e 1040 -c 1 -i 26 -a 1 -x {0.0 4.0 12 ------- null}
+ -t 6.85007888 -s 3 -d 4 -p tcp -e 1040 -c 1 -i 26 -a 1 -x {0.0 4.0 12 ------- null}
- -t 6.85007888 -s 3 -d 4 -p tcp -e 1040 -c 1 -i 26 -a 1 -x {0.0 4.0 12 ------- null}
h -t 6.85007888 -s 3 -d 4 -p tcp -e 1040 -c 1 -i 26 -a 1 -x {0.0 4.0 -1 ------- null}
r -t 6.8500872 -s 2 -d 3 -p tcp -e 1040 -c 1 -i 27 -a 1 -x {0.0 4.0 13 ------- null}
+ -t 6.8500872 -s 3 -d 4 -p tcp -e 1040 -c 1 -i 27 -a 1 -x {0.0 4.0 13 ------- null}
- -t 6.8500872 -s 3 -d 4 -p tcp -e 1040 -c 1 -i 27 -a 1 -x {0.0 4.0 13 ------- null}
h -t 6.8500872 -s 3 -d 4 -p tcp -e 1040 -c 1 -i 27 -a 1 -x {0.0 4.0 -1 ------- null}
r -t 6.85009552 -s 2 -d 3 -p tcp -e 1040 -c 1 -i 28 -a 1 -x {0.0 4.0 14 ------- null}
+ -t 6.85009552 -s 3 -d 4 -p tcp -e 1040 -c 1 -i 28 -a 1 -x {0.0 4.0 14 ------- null}
- -t 6.85009552 -s 3 -d 4 -p tcp -e 1040 -c 1 -i 28 -a 1 -x {0.0 4.0 14 ------- null}
h -t 6.85009552 -s 3 -d 4 -p tcp -e 1040 -c 1 -i 28 -a 1 -x {0.0 4.0 -1 ------- null}
r -t 7.10000304 -s 1 -d 2 -p tcp -e 1040 -c 2 -i 20 -a 2 -x {1.0 5.0 2 ------- null}
+ -t 7.10000304 -s 2 -d 3 -p tcp -e 1040 -c 2 -i 20 -a 2 -x {1.0 5.0 2 ------- null}
- -t 7.10000304 -s 2 -d 3 -p tcp -e 1040 -c 2 -i 20 -a 2 -x {1.0 5.0 2 ------- null}
h -t 7.10000304 -s 2 -d 3 -p tcp -e 1040 -c 2 -i 20 -a 2 -x {1.0 5.0 -1 ------- null}
r -t 7.15001136 -s 2 -d 3 -p tcp -e 1040 -c 2 -i 20 -a 2 -x {1.0 5.0 2 ------- null}
+ -t 7.15001136 -s 3 -d 5 -p tcp -e 1040 -c 2 -i 20 -a 2 -x {1.0 5.0 2 ------- null}
- -t 7.15001136 -s 3 -d 5 -p tcp -e 1040 -c 2 -i 20 -a 2 -x {1.0 5.0 2 ------- null}
h -t 7.15001136 -s 3 -d 5 -p tcp -e 1040 -c 2 -i 20 -a 2 -x {1.0 5.0 -1 ------- null}
r -t 7.35003936 -s 3 -d 4 -p tcp -e 1040 -c 1 -i 21 -a 1 -x {0.0 4.0 7 ------- null}
+ -t 7.35003936 -s 4 -d 3 -p ack -e 40 -c 1 -i 30 -a 1 -x {4.0 0.0 7 ------- null}
- -t 7.35003936 -s 4 -d 3 -p ack -e 40 -c 1 -i 30 -a 1 -x {4.0 0.0 7 ------- null}
h -t 7.35003936 -s 4 -d 3 -p ack -e 40 -c 1 -i 30 -a 1 -x {4.0 0.0 -1 ------- null}
r -t 7.35004768 -s 3 -d 4 -p tcp -e 1040 -c 1 -i 22 -a 1 -x {0.0 4.0 8 ------- null}
+ -t 7.35004768 -s 4 -d 3 -p ack -e 40 -c 1 -i 31 -a 1 -x {4.0 0.0 8 ------- null}