V -t * -v 1.0a5 -a 0
A -t * -n 1 -p 0 -o 0x7fffffff -c 30 -a 1
A -t * -h 1 -m 1073741823 -s 0
c -t * -i 1 -n Blue
c -t * -i 2 -n Red
n -t * -a 4 -s 4 -S UP -v circle -c black -i black
n -t * -a 0 -s 0 -S UP -v circle -c black -i black
n -t * -a 5 -s 5 -S UP -v circle -c black -i black
n -t * -a 1 -s 1 -S UP -v circle -c black -i black
n -t * -a 2 -s 2 -S UP -v circle -c black -i black
n -t * -a 3 -s 3 -S UP -v circle -c black -i black
l -t * -s 0 -d 2 -S UP -r 4000000000 -D 0.5 -c black -o right-down
l -t * -s 1 -d 2 -S UP -r 4000000000 -D 0.80000000000000004 -c black -o right-up
l -t * -s 2 -d 3 -S UP -r 1000000000 -D 0.050000000000000003 -c black -o right
l -t * -s 3 -d 4 -S UP -r 4000000000 -D 0.5 -c black -o right-up
l -t * -s 3 -d 5 -S UP -r 4000000000 -D 0.80000000000000004 -c black -o right-down
+ -t 0 -s 1 -d 2 -p tcp -e 1000 -c 2 -i 0 -a 2 -x {1.0 5.0 0 ------- null}
- -t 0 -s 1 -d 2 -p tcp -e 1000 -c 2 -i 0 -a 2 -x {1.0 5.0 0 ------- null}
h -t 0 -s 1 -d 2 -p tcp -e 1000 -c 2 -i 0 -a 2 -x {1.0 5.0 -1 ------- null}
+ -t 0 -s 0 -d 2 -p tcp -e 1000 -c 1 -i 1 -a 1 -x {0.0 4.0 0 ------- null}
- -t 0 -s 0 -d 2 -p tcp -e 1000 -c 1 -i 1 -a 1 -x {0.0 4.0 0 ------- null}
h -t 0 -s 0 -d 2 -p tcp -e 1000 -c 1 -i 1 -a 1 -x {0.0 4.0 -1 ------- null}
r -t 0.500002 -s 0 -d 2 -p tcp -e 1000 -c 1 -i 1 -a 1 -x {0.0 4.0 0 ------- null}
+ -t 0.500002 -s 2 -d 3 -p tcp -e 1000 -c 1 -i 1 -a 1 -x {0.0 4.0 0 ------- null}
- -t 0.500002 -s 2 -d 3 -p tcp -e 1000 -c 1 -i 1 -a 1 -x {0.0 4.0 0 ------- null}
h -t 0.500002 -s 2 -d 3 -p tcp -e 1000 -c 1 -i 1 -a 1 -x {0.0 4.0 -1 ------- null}
r -t 0.55001 -s 2 -d 3 -p tcp -e 1000 -c 1 -i 1 -a 1 -x {0.0 4.0 0 ------- null}
+ -t 0.55001 -s 3 -d 4 -p tcp -e 1000 -c 1 -i 1 -a 1 -x {0.0 4.0 0 ------- null}
- -t 0.55001 -s 3 -d 4 -p tcp -e 1000 -c 1 -i 1 -a 1 -x {0.0 4.0 0 ------- null}
h -t 0.55001 -s 3 -d 4 -p tcp -e 1000 -c 1 -i 1 -a 1 -x {0.0 4.0 -1 ------- null}
r -t 0.800002 -s 1 -d 2 -p tcp -e 1000 -c 2 -i 0 -a 2 -x {1.0 5.0 0 ------- null}
+ -t 0.800002 -s 2 -d 3 -p tcp -e 1000 -c 2 -i 0 -a 2 -x {1.0 5.0 0 ------- null}
- -t 0.800002 -s 2 -d 3 -p tcp -e 1000 -c 2 -i 0 -a 2 -x {1.0 5.0 0 ------- null}
h -t 0.800002 -s 2 -d 3 -p tcp -e 1000 -c 2 -i 0 -a 2 -x {1.0 5.0 -1 ------- null}
r -t 0.85001 -s 2 -d 3 -p tcp -e 1000 -c 2 -i 0 -a 2 -x {1.0 5.0 0 ------- null}
+ -t 0.85001 -s 3 -d 5 -p tcp -e 1000 -c 2 -i 0 -a 2 -x {1.0 5.0 0 ------- null}
- -t 0.85001 -s 3 -d 5 -p tcp -e 1000 -c 2 -i 0 -a 2 -x {1.0 5.0 0 ------- null}
h -t 0.85001 -s 3 -d 5 -p tcp -e 1000 -c 2 -i 0 -a 2 -x {1.0 5.0 -1 ------- null}
r -t 1.050012 -s 3 -d 4 -p tcp -e 1000 -c 1 -i 1 -a 1 -x {0.0 4.0 0 ------- null}
+ -t 1.050012 -s 4 -d 3 -p ack -e 40 -c 1 -i 2 -a 1 -x {4.0 0.0 0 ------- null}
- -t 1.050012 -s 4 -d 3 -p ack -e 40 -c 1 -i 2 -a 1 -x {4.0 0.0 0 ------- null}
h -t 1.050012 -s 4 -d 3 -p ack -e 40 -c 1 -i 2 -a 1 -x {4.0 0.0 -1 ------- null}
r -t 1.55001208 -s 4 -d 3 -p ack -e 40 -c 1 -i 2 -a 1 -x {4.0 0.0 0 ------- null}
+ -t 1.55001208 -s 3 -d 2 -p ack -e 40 -c 1 -i 2 -a 1 -x {4.0 0.0 0 ------- null}
- -t 1.55001208 -s 3 -d 2 -p ack -e 40 -c 1 -i 2 -a 1 -x {4.0 0.0 0 ------- null}
h -t 1.55001208 -s 3 -d 2 -p ack -e 40 -c 1 -i 2 -a 1 -x {4.0 0.0 -1 ------- null}
r -t 1.6000124 -s 3 -d 2 -p ack -e 40 -c 1 -i 2 -a 1 -x {4.0 0.0 0 ------- null}
+ -t 1.6000124 -s 2 -d 0 -p ack -e 40 -c 1 -i 2 -a 1 -x {4.0 0.0 0 ------- null}
- -t 1.6000124 -s 2 -d 0 -p ack -e 40 -c 1 -i 2 -a 1 -x {4.0 0.0 0 ------- null}
h -t 1.6000124 -s 2 -d 0 -p ack -e 40 -c 1 -i 2 -a 1 -x {4.0 0.0 -1 ------- null}
r -t 1.650012 -s 3 -d 5 -p tcp -e 1000 -c 2 -i 0 -a 2 -x {1.0 5.0 0 ------- null}
+ -t 1.650012 -s 5 -d 3 -p ack -e 40 -c 2 -i 3 -a 2 -x {5.0 1.0 0 ------- null}
- -t 1.650012 -s 5 -d 3 -p ack -e 40 -c 2 -i 3 -a 2 -x {5.0 1.0 0 ------- null}
h -t 1.650012 -s 5 -d 3 -p ack -e 40 -c 2 -i 3 -a 2 -x {5.0 1.0 -1 ------- null}
r -t 2.10001248 -s 2 -d 0 -p ack -e 40 -c 1 -i 2 -a 1 -x {4.0 0.0 0 ------- null}
+ -t 2.10001248 -s 0 -d 2 -p tcp -e 1000 -c 1 -i 4 -a 1 -x {0.0 4.0 1 ------- null}
- -t 2.10001248 -s 0 -d 2 -p tcp -e 1000 -c 1 -i 4 -a 1 -x {0.0 4.0 1 ------- null}
h -t 2.10001248 -s 0 -d 2 -p tcp -e 1000 -c 1 -i 4 -a 1 -x {0.0 4.0 -1 ------- null}
r -t 2.45001208 -s 5 -d 3 -p ack -e 40 -c 2 -i 3 -a 2 -x {5.0 1.0 0 ------- null}
+ -t 2.45001208 -s 3 -d 2 -p ack -e 40 -c 2 -i 3 -a 2 -x {5.0 1.0 0 ------- null}
- -t 2.45001208 -s 3 -d 2 -p ack -e 40 -c 2 -i 3 -a 2 -x {5.0 1.0 0 ------- null}
h -t 2.45001208 -s 3 -d 2 -p ack -e 40 -c 2 -i 3 -a 2 -x {5.0 1.0 -1 ------- null}
r -t 2.5000124 -s 3 -d 2 -p ack -e 40 -c 2 -i 3 -a 2 -x {5.0 1.0 0 ------- null}
+ -t 2.5000124 -s 2 -d 1 -p ack -e 40 -c 2 -i 3 -a 2 -x {5.0 1.0 0 ------- null}
- -t 2.5000124 -s 2 -d 1 -p ack -e 40 -c 2 -i 3 -a 2 -x {5.0 1.0 0 ------- null}
h -t 2.5000124 -s 2 -d 1 -p ack -e 40 -c 2 -i 3 -a 2 -x {5.0 1.0 -1 ------- null}
r -t 2.60001448 -s 0 -d 2 -p tcp -e 1000 -c 1 -i 4 -a 1 -x {0.0 4.0 1 ------- null}
+ -t 2.60001448 -s 2 -d 3 -p tcp -e 1000 -c 1 -i 4 -a 1 -x {0.0 4.0 1 ------- null}
- -t 2.60001448 -s 2 -d 3 -p tcp -e 1000 -c 1 -i 4 -a 1 -x {0.0 4.0 1 ------- null}
h -t 2.60001448 -s 2 -d 3 -p tcp -e 1000 -c 1 -i 4 -a 1 -x {0.0 4.0 -1 ------- null}
r -t 2.65002248 -s 2 -d 3 -p tcp -e 1000 -c 1 -i 4 -a 1 -x {0.0 4.0 1 ------- null}
+ -t 2.65002248 -s 3 -d 4 -p tcp -e 1000 -c 1 -i 4 -a 1 -x {0.0 4.0 1 ------- null}
- -t 2.65002248 -s 3 -d 4 -p tcp -e 1000 -c 1 -i 4 -a 1 -x {0.0 4.0 1 ------- null}
h -t 2.65002248 -s 3 -d 4 -p tcp -e 1000 -c 1 -i 4 -a 1 -x {0.0 4.0 -1 ------- null}
+ -t 3 -s 1 -d 2 -p tcp -e 1000 -c 2 -i 5 -a 2 -x {1.0 5.0 0 ------- null}
- -t 3 -s 1 -d 2 -p tcp -e 1000 -c 2 -i 5 -a 2 -x {1.0 5.0 0 ------- null}
h -t 3 -s 1 -d 2 -p tcp -e 1000 -c 2 -i 5 -a 2 -x {1.0 5.0 -1 ------- null}
+ -t 3 -s 1 -d 2 -p tcp -e 1000 -c 2 -i 6 -a 2 -x {1.0 5.0 1 ------- null}
- -t 3.000002 -s 1 -d 2 -p tcp -e 1000 -c 2 -i 6 -a 2 -x {1.0 5.0 1 ------- null}
h -t 3.000002 -s 1 -d 2 -p tcp -e 1000 -c 2 -i 6 -a 2 -x {1.0 5.0 -1 ------- null}
r -t 3.15002448 -s 3 -d 4 -p tcp -e 1000 -c 1 -i 4 -a 1 -x {0.0 4.0 1 ------- null}
+ -t 3.15002448 -s 4 -d 3 -p ack -e 40 -c 1 -i 7 -a 1 -x {4.0 0.0 1 ------- null}
- -t 3.15002448 -s 4 -d 3 -p ack -e 40 -c 1 -i 7 -a 1 -x {4.0 0.0 1 ------- null}
h -t 3.15002448 -s 4 -d 3 -p ack -e 40 -c 1 -i 7 -a 1 -x {4.0 0.0 -1 ------- null}
r -t 3.30001248 -s 2 -d 1 -p ack -e 40 -c 2 -i 3 -a 2 -x {5.0 1.0 0 ------- null}
+ -t 3.30001248 -s 1 -d 2 -p tcp -e 1000 -c 2 -i 8 -a 2 -x {1.0 5.0 2 ------- null}
- -t 3.30001248 -s 1 -d 2 -p tcp -e 1000 -c 2 -i 8 -a 2 -x {1.0 5.0 2 ------- null}
h -t 3.30001248 -s 1 -d 2 -p tcp -e 1000 -c 2 -i 8 -a 2 -x {1.0 5.0 -1 ------- null}
r -t 3.65002456 -s 4 -d 3 -p ack -e 40 -c 1 -i 7 -a 1 -x {4.0 0.0 1 ------- null}
+ -t 3.65002456 -s 3 -d 2 -p ack -e 40 -c 1 -i 7 -a 1 -x {4.0 0.0 1 ------- null}
- -t 3.65002456 -s 3 -d 2 -p ack -e 40 -c 1 -i 7 -a 1 -x {4.0 0.0 1 ------- null}
h -t 3.65002456 -s 3 -d 2 -p ack -e 40 -c 1 -i 7 -a 1 -x {4.0 0.0 -1 ------- null}
r -t 3.70002488 -s 3 -d 2 -p ack -e 40 -c 1 -i 7 -a 1 -x {4.0 0.0 1 ------- null}
+ -t 3.70002488 -s 2 -d 0 -p ack -e 40 -c 1 -i 7 -a 1 -x {4.0 0.0 1 ------- null}
- -t 3.70002488 -s 2 -d 0 -p ack -e 40 -c 1 -i 7 -a 1 -x {4.0 0.0 1 ------- null}
h -t 3.70002488 -s 2 -d 0 -p ack -e 40 -c 1 -i 7 -a 1 -x {4.0 0.0 -1 ------- null}
r -t 3.800002 -s 1 -d 2 -p tcp -e 1000 -c 2 -i 5 -a 2 -x {1.0 5.0 0 ------- null}
+ -t 3.800002 -s 2 -d 3 -p tcp -e 1000 -c 2 -i 5 -a 2 -x {1.0 5.0 0 ------- null}
- -t 3.800002 -s 2 -d 3 -p tcp -e 1000 -c 2 -i 5 -a 2 -x {1.0 5.0 0 ------- null}
h -t 3.800002 -s 2 -d 3 -p tcp -e 1000 -c 2 -i 5 -a 2 -x {1.0 5.0 -1 ------- null}
r -t 3.800004 -s 1 -d 2 -p tcp -e 1000 -c 2 -i 6 -a 2 -x {1.0 5.0 1 ------- null}
+ -t 3.800004 -s 2 -d 3 -p tcp -e 1000 -c 2 -i 6 -a 2 -x {1.0 5.0 1 ------- null}
- -t 3.80001 -s 2 -d 3 -p tcp -e 1000 -c 2 -i 6 -a 2 -x {1.0 5.0 1 ------- null}
h -t 3.80001 -s 2 -d 3 -p tcp -e 1000 -c 2 -i 6 -a 2 -x {1.0 5.0 -1 ------- null}
r -t 3.85001 -s 2 -d 3 -p tcp -e 1000 -c 2 -i 5 -a 2 -x {1.0 5.0 0 ------- null}
+ -t 3.85001 -s 3 -d 5 -p tcp -e 1000 -c 2 -i 5 -a 2 -x {1.0 5.0 0 ------- null}
- -t 3.85001 -s 3 -d 5 -p tcp -e 1000 -c 2 -i 5 -a 2 -x {1.0 5.0 0 ------- null}
h -t 3.85001 -s 3 -d 5 -p tcp -e 1000 -c 2 -i 5 -a 2 -x {1.0 5.0 -1 ------- null}
r -t 3.850018 -s 2 -d 3 -p tcp -e 1000 -c 2 -i 6 -a 2 -x {1.0 5.0 1 ------- null}
+ -t 3.850018 -s 3 -d 5 -p tcp -e 1000 -c 2 -i 6 -a 2 -x {1.0 5.0 1 ------- null}
- -t 3.850018 -s 3 -d 5 -p tcp -e 1000 -c 2 -i 6 -a 2 -x {1.0 5.0 1 ------- null}
h -t 3.850018 -s 3 -d 5 -p tcp -e 1000 -c 2 -i 6 -a 2 -x {1.0 5.0 -1 ------- null}
r -t 4.10001448 -s 1 -d 2 -p tcp -e 1000 -c 2 -i 8 -a 2 -x {1.0 5.0 2 ------- null}
+ -t 4.10001448 -s 2 -d 3 -p tcp -e 1000 -c 2 -i 8 -a 2 -x {1.0 5.0 2 ------- null}
- -t 4.10001448 -s 2 -d 3 -p tcp -e 1000 -c 2 -i 8 -a 2 -x {1.0 5.0 2 ------- null}
h -t 4.10001448 -s 2 -d 3 -p tcp -e 1000 -c 2 -i 8 -a 2 -x {1.0 5.0 -1 ------- null}
r -t 4.15002248 -s 2 -d 3 -p tcp -e 1000 -c 2 -i 8 -a 2 -x {1.0 5.0 2 ------- null}
+ -t 4.15002248 -s 3 -d 5 -p tcp -e 1000 -c 2 -i 8 -a 2 -x {1.0 5.0 2 ------- null}
- -t 4.15002248 -s 3 -d 5 -p tcp -e 1000 -c 2 -i 8 -a 2 -x {1.0 5.0 2 ------- null}
h -t 4.15002248 -s 3 -d 5 -p tcp -e 1000 -c 2 -i 8 -a 2 -x {1.0 5.0 -1 ------- null}
r -t 4.20002496 -s 2 -d 0 -p ack -e 40 -c 1 -i 7 -a 1 -x {4.0 0.0 1 ------- null}
+ -t 4.20002496 -s 0 -d 2 -p tcp -e 1000 -c 1 -i 9 -a 1 -x {0.0 4.0 2 ------- null}
- -t 4.20002496 -s 0 -d 2 -p tcp -e 1000 -c 1 -i 9 -a 1 -x {0.0 4.0 2 ------- null}
h -t 4.20002496 -s 0 -d 2 -p tcp -e 1000 -c 1 -i 9 -a 1 -x {0.0 4.0 -1 ------- null}
+ -t 4.20002496 -s 0 -d 2 -p tcp -e 1000 -c 1 -i 10 -a 1 -x {0.0 4.0 3 ------- null}
+ -t 4.20002496 -s 0 -d 2 -p tcp -e 1000 -c 1 -i 11 -a 1 -x {0.0 4.0 4 ------- null}
- -t 4.20002696 -s 0 -d 2 -p tcp -e 1000 -c 1 -i 10 -a 1 -x {0.0 4.0 3 ------- null}
h -t 4.20002696 -s 0 -d 2 -p tcp -e 1000 -c 1 -i 10 -a 1 -x {0.0 4.0 -1 ------- null}
- -t 4.20002896 -s 0 -d 2 -p tcp -e 1000 -c 1 -i 11 -a 1 -x {0.0 4.0 4 ------- null}
h -t 4.20002896 -s 0 -d 2 -p tcp -e 1000 -c 1 -i 11 -a 1 -x {0.0 4.0 -1 ------- null}
r -t 4.650012 -s 3 -d 5 -p tcp -e 1000 -c 2 -i 5 -a 2 -x {1.0 5.0 0 ------- null}
+ -t 4.650012 -s 5 -d 3 -p ack -e 40 -c 2 -i 12 -a 2 -x {5.0 1.0 0 ------- null}
- -t 4.650012 -s 5 -d 3 -p ack -e 40 -c 2 -i 12 -a 2 -x {5.0 1.0 0 ------- null}
h -t 4.650012 -s 5 -d 3 -p ack -e 40 -c 2 -i 12 -a 2 -x {5.0 1.0 -1 ------- null}
r -t 4.65002 -s 3 -d 5 -p tcp -e 1000 -c 2 -i 6 -a 2 -x {1.0 5.0 1 ------- null}
+ -t 4.65002 -s 5 -d 3 -p ack -e 40 -c 2 -i 13 -a 2 -x {5.0 1.0 1 ------- null}
- -t 4.65002 -s 5 -d 3 -p ack -e 40 -c 2 -i 13 -a 2 -x {5.0 1.0 1 ------- null}
h -t 4.65002 -s 5 -d 3 -p ack -e 40 -c 2 -i 13 -a 2 -x {5.0 1.0 -1 ------- null}
r -t 4.70002696 -s 0 -d 2 -p tcp -e 1000 -c 1 -i 9 -a 1 -x {0.0 4.0 2 ------- null}
+ -t 4.70002696 -s 2 -d 3 -p tcp -e 1000 -c 1 -i 9 -a 1 -x {0.0 4.0 2 ------- null}
- -t 4.70002696 -s 2 -d 3 -p tcp -e 1000 -c 1 -i 9 -a 1 -x {0.0 4.0 2 ------- null}
h -t 4.70002696 -s 2 -d 3 -p tcp -e 1000 -c 1 -i 9 -a 1 -x {0.0 4.0 -1 ------- null}
r -t 4.70002896 -s 0 -d 2 -p tcp -e 1000 -c 1 -i 10 -a 1 -x {0.0 4.0 3 ------- null}
+ -t 4.70002896 -s 2 -d 3 -p tcp -e 1000 -c 1 -i 10 -a 1 -x {0.0 4.0 3 ------- null}
r -t 4.70003096 -s 0 -d 2 -p tcp -e 1000 -c 1 -i 11 -a 1 -x {0.0 4.0 4 ------- null}
+ -t 4.70003096 -s 2 -d 3 -p tcp -e 1000 -c 1 -i 11 -a 1 -x {0.0 4.0 4 ------- null}
- -t 4.70003496 -s 2 -d 3 -p tcp -e 1000 -c 1 -i 10 -a 1 -x {0.0 4.0 3 ------- null}
h -t 4.70003496 -s 2 -d 3 -p tcp -e 1000 -c 1 -i 10 -a 1 -x {0.0 4.0 -1 ------- null}
- -t 4.70004296 -s 2 -d 3 -p tcp -e 1000 -c 1 -i 11 -a 1 -x {0.0 4.0 4 ------- null}
h -t 4.70004296 -s 2 -d 3 -p tcp -e 1000 -c 1 -i 11 -a 1 -x {0.0 4.0 -1 ------- null}
r -t 4.75003496 -s 2 -d 3 -p tcp -e 1000 -c 1 -i 9 -a 1 -x {0.0 4.0 2 ------- null}
+ -t 4.75003496 -s 3 -d 4 -p tcp -e 1000 -c 1 -i 9 -a 1 -x {0.0 4.0 2 ------- null}
- -t 4.75003496 -s 3 -d 4 -p tcp -e 1000 -c 1 -i 9 -a 1 -x {0.0 4.0 2 ------- null}
h -t 4.75003496 -s 3 -d 4 -p tcp -e 1000 -c 1 -i 9 -a 1 -x {0.0 4.0 -1 ------- null}
r -t 4.75004296 -s 2 -d 3 -p tcp -e 1000 -c 1 -i 10 -a 1 -x {0.0 4.0 3 ------- null}
+ -t 4.75004296 -s 3 -d 4 -p tcp -e 1000 -c 1 -i 10 -a 1 -x {0.0 4.0 3 ------- null}
- -t 4.75004296 -s 3 -d 4 -p tcp -e 1000 -c 1 -i 10 -a 1 -x {0.0 4.0 3 ------- null}
h -t 4.75004296 -s 3 -d 4 -p tcp -e 1000 -c 1 -i 10 -a 1 -x {0.0 4.0 -1 ------- null}
r -t 4.75005096 -s 2 -d 3 -p tcp -e 1000 -c 1 -i 11 -a 1 -x {0.0 4.0 4 ------- null}
+ -t 4.75005096 -s 3 -d 4 -p tcp -e 1000 -c 1 -i 11 -a 1 -x {0.0 4.0 4 ------- null}
- -t 4.75005096 -s 3 -d 4 -p tcp -e 1000 -c 1 -i 11 -a 1 -x {0.0 4.0 4 ------- null}
h -t 4.75005096 -s 3 -d 4 -p tcp -e 1000 -c 1 -i 11 -a 1 -x {0.0 4.0 -1 ------- null}
r -t 4.95002448 -s 3 -d 5 -p tcp -e 1000 -c 2 -i 8 -a 2 -x {1.0 5.0 2 ------- null}
+ -t 4.95002448 -s 5 -d 3 -p ack -e 40 -c 2 -i 14 -a 2 -x {5.0 1.0 2 ------- null}
- -t 4.95002448 -s 5 -d 3 -p ack -e 40 -c 2 -i 14 -a 2 -x {5.0 1.0 2 ------- null}
h -t 4.95002448 -s 5 -d 3 -p ack -e 40 -c 2 -i 14 -a 2 -x {5.0 1.0 -1 ------- null}
r -t 5.25003696 -s 3 -d 4 -p tcp -e 1000 -c 1 -i 9 -a 1 -x {0.0 4.0 2 ------- null}
+ -t 5.25003696 -s 4 -d 3 -p ack -e 40 -c 1 -i 15 -a 1 -x {4.0 0.0 2 ------- null}
- -t 5.25003696 -s 4 -d 3 -p ack -e 40 -c 1 -i 15 -a 1 -x {4.0 0.0 2 ------- null}
h -t 5.25003696 -s 4 -d 3 -p ack -e 40 -c 1 -i 15 -a 1 -x {4.0 0.0 -1 ------- null}
r -t 5.25004496 -s 3 -d 4 -p tcp -e 1000 -c 1 -i 10 -a 1 -x {0.0 4.0 3 ------- null}
+ -t 5.25004496 -s 4 -d 3 -p ack -e 40 -c 1 -i 16 -a 1 -x {4.0 0.0 3 ------- null}
- -t 5.25004496 -s 4 -d 3 -p ack -e 40 -c 1 -i 16 -a 1 -x {4.0 0.0 3 ------- null}
h -t 5.25004496 -s 4 -d 3 -p ack -e 40 -c 1 -i 16 -a 1 -x {4.0 0.0 -1 ------- null}
r -t 5.25005296 -s 3 -d 4 -p tcp -e 1000 -c 1 -i 11 -a 1 -x {0.0 4.0 4 ------- null}
+ -t 5.25005296 -s 4 -d 3 -p ack -e 40 -c 1 -i 17 -a 1 -x {4.0 0.0 4 ------- null}
- -t 5.25005296 -s 4 -d 3 -p ack -e 40 -c 1 -i 17 -a 1 -x {4.0 0.0 4 ------- null}
h -t 5.25005296 -s 4 -d 3 -p ack -e 40 -c 1 -i 17 -a 1 -x {4.0 0.0 -1 ------- null}
r -t 5.45001208 -s 5 -d 3 -p ack -e 40 -c 2 -i 12 -a 2 -x {5.0 1.0 0 ------- null}
+ -t 5.45001208 -s 3 -d 2 -p ack -e 40 -c 2 -i 12 -a 2 -x {5.0 1.0 0 ------- null}
- -t 5.45001208 -s 3 -d 2 -p ack -e 40 -c 2 -i 12 -a 2 -x {5.0 1.0 0 ------- null}
h -t 5.45001208 -s 3 -d 2 -p ack -e 40 -c 2 -i 12 -a 2 -x {5.0 1.0 -1 ------- null}
r -t 5.45002008 -s 5 -d 3 -p ack -e 40 -c 2 -i 13 -a 2 -x {5.0 1.0 1 ------- null}
+ -t 5.45002008 -s 3 -d 2 -p ack -e 40 -c 2 -i 13 -a 2 -x {5.0 1.0 1 ------- null}
- -t 5.45002008 -s 3 -d 2 -p ack -e 40 -c 2 -i 13 -a 2 -x {5.0 1.0 1 ------- null}
h -t 5.45002008 -s 3 -d 2 -p ack -e 40 -c 2 -i 13 -a 2 -x {5.0 1.0 -1 ------- null}
r -t 5.5000124 -s 3 -d 2 -p ack -e 40 -c 2 -i 12 -a 2 -x {5.0 1.0 0 ------- null}
+ -t 5.5000124 -s 2 -d 1 -p ack -e 40 -c 2 -i 12 -a 2 -x {5.0 1.0 0 ------- null}
- -t 5.5000124 -s 2 -d 1 -p ack -e 40 -c 2 -i 12 -a 2 -x {5.0 1.0 0 ------- null}
h -t 5.5000124 -s 2 -d 1 -p ack -e 40 -c 2 -i 12 -a 2 -x {5.0 1.0 -1 ------- null}
r -t 5.5000204 -s 3 -d 2 -p ack -e 40 -c 2 -i 13 -a 2 -x {5.0 1.0 1 ------- null}
+ -t 5.5000204 -s 2 -d 1 -p ack -e 40 -c 2 -i 13 -a 2 -x {5.0 1.0 1 ------- null}
- -t 5.5000204 -s 2 -d 1 -p ack -e 40 -c 2 -i 13 -a 2 -x {5.0 1.0 1 ------- null}
h -t 5.5000204 -s 2 -d 1 -p ack -e 40 -c 2 -i 13 -a 2 -x {5.0 1.0 -1 ------- null}
r -t 5.75002456 -s 5 -d 3 -p ack -e 40 -c 2 -i 14 -a 2 -x {5.0 1.0 2 ------- null}
+ -t 5.75002456 -s 3 -d 2 -p ack -e 40 -c 2 -i 14 -a 2 -x {5.0 1.0 2 ------- null}
- -t 5.75002456 -s 3 -d 2 -p ack -e 40 -c 2 -i 14 -a 2 -x {5.0 1.0 2 ------- null}
h -t 5.75002456 -s 3 -d 2 -p ack -e 40 -c 2 -i 14 -a 2 -x {5.0 1.0 -1 ------- null}
r -t 5.75003704 -s 4 -d 3 -p ack -e 40 -c 1 -i 15 -a 1 -x {4.0 0.0 2 ------- null}
+ -t 5.75003704 -s 3 -d 2 -p ack -e 40 -c 1 -i 15 -a 1 -x {4.0 0.0 2 ------- null}
- -t 5.75003704 -s 3 -d 2 -p ack -e 40 -c 1 -i 15 -a 1 -x {4.0 0.0 2 ------- null}
h -t 5.75003704 -s 3 -d 2 -p ack -e 40 -c 1 -i 15 -a 1 -x {4.0 0.0 -1 ------- null}
r -t 5.75004504 -s 4 -d 3 -p ack -e 40 -c 1 -i 16 -a 1 -x {4.0 0.0 3 ------- null}
+ -t 5.75004504 -s 3 -d 2 -p ack -e 40 -c 1 -i 16 -a 1 -x {4.0 0.0 3 ------- null}
- -t 5.75004504 -s 3 -d 2 -p ack -e 40 -c 1 -i 16 -a 1 -x {4.0 0.0 3 ------- null}
h -t 5.75004504 -s 3 -d 2 -p ack -e 40 -c 1 -i 16 -a 1 -x {4.0 0.0 -1 ------- null}
r -t 5.75005304 -s 4 -d 3 -p ack -e 40 -c 1 -i 17 -a 1 -x {4.0 0.0 4 ------- null}
+ -t 5.75005304 -s 3 -d 2 -p ack -e 40 -c 1 -i 17 -a 1 -x {4.0 0.0 4 ------- null}
- -t 5.75005304 -s 3 -d 2 -p ack -e 40 -c 1 -i 17 -a 1 -x {4.0 0.0 4 ------- null}
h -t 5.75005304 -s 3 -d 2 -p ack -e 40 -c 1 -i 17 -a 1 -x {4.0 0.0 -1 ------- null}
r -t 5.80002488 -s 3 -d 2 -p ack -e 40 -c 2 -i 14 -a 2 -x {5.0 1.0 2 ------- null}
+ -t 5.80002488 -s 2 -d 1 -p ack -e 40 -c 2 -i 14 -a 2 -x {5.0 1.0 2 ------- null}
- -t 5.80002488 -s 2 -d 1 -p ack -e 40 -c 2 -i 14 -a 2 -x {5.0 1.0 2 ------- null}
h -t 5.80002488 -s 2 -d 1 -p ack -e 40 -c 2 -i 14 -a 2 -x {5.0 1.0 -1 ------- null}
r -t 5.80003736 -s 3 -d 2 -p ack -e 40 -c 1 -i 15 -a 1 -x {4.0 0.0 2 ------- null}
+ -t 5.80003736 -s 2 -d 0 -p ack -e 40 -c 1 -i 15 -a 1 -x {4.0 0.0 2 ------- null}
- -t 5.80003736 -s 2 -d 0 -p ack -e 40 -c 1 -i 15 -a 1 -x {4.0 0.0 2 ------- null}
h -t 5.80003736 -s 2 -d 0 -p ack -e 40 -c 1 -i 15 -a 1 -x {4.0 0.0 -1 ------- null}
r -t 5.80004536 -s 3 -d 2 -p ack -e 40 -c 1 -i 16 -a 1 -x {4.0 0.0 3 ------- null}
+ -t 5.80004536 -s 2 -d 0 -p ack -e 40 -c 1 -i 16 -a 1 -x {4.0 0.0 3 ------- null}
- -t 5.80004536 -s 2 -d 0 -p ack -e 40 -c 1 -i 16 -a 1 -x {4.0 0.0 3 ------- null}
h -t 5.80004536 -s 2 -d 0 -p ack -e 40 -c 1 -i 16 -a 1 -x {4.0 0.0 -1 ------- null}
r -t 5.80005336 -s 3 -d 2 -p ack -e 40 -c 1 -i 17 -a 1 -x {4.0 0.0 4 ------- null}
+ -t 5.80005336 -s 2 -d 0 -p ack -e 40 -c 1 -i 17 -a 1 -x {4.0 0.0 4 ------- null}
- -t 5.80005336 -s 2 -d 0 -p ack -e 40 -c 1 -i 17 -a 1 -x {4.0 0.0 4 ------- null}
h -t 5.80005336 -s 2 -d 0 -p ack -e 40 -c 1 -i 17 -a 1 -x {4.0 0.0 -1 ------- null}
r -t 6.30001248 -s 2 -d 1 -p ack -e 40 -c 2 -i 12 -a 2 -x {5.0 1.0 0 ------- null}
r -t 6.30002048 -s 2 -d 1 -p ack -e 40 -c 2 -i 13 -a 2 -x {5.0 1.0 1 ------- null}
+ -t 6.30002048 -s 1 -d 2 -p tcp -e 1000 -c 2 -i 18 -a 2 -x {1.0 5.0 3 ------- null}
- -t 6.30002048 -s 1 -d 2 -p tcp -e 1000 -c 2 -i 18 -a 2 -x {1.0 5.0 3 ------- null}
h -t 6.30002048 -s 1 -d 2 -p tcp -e 1000 -c 2 -i 18 -a 2 -x {1.0 5.0 -1 ------- null}
r -t 6.30003744 -s 2 -d 0 -p ack -e 40 -c 1 -i 15 -a 1 -x {4.0 0.0 2 ------- null}
+ -t 6.30003744 -s 0 -d 2 -p tcp -e 1000 -c 1 -i 19 -a 1 -x {0.0 4.0 5 ------- null}
- -t 6.30003744 -s 0 -d 2 -p tcp -e 1000 -c 1 -i 19 -a 1 -x {0.0 4.0 5 ------- null}
h -t 6.30003744 -s 0 -d 2 -p tcp -e 1000 -c 1 -i 19 -a 1 -x {0.0 4.0 -1 ------- null}
r -t 6.30004544 -s 2 -d 0 -p ack -e 40 -c 1 -i 16 -a 1 -x {4.0 0.0 3 ------- null}
+ -t 6.30004544 -s 0 -d 2 -p tcp -e 1000 -c 1 -i 20 -a 1 -x {0.0 4.0 6 ------- null}
- -t 6.30004544 -s 0 -d 2 -p tcp -e 1000 -c 1 -i 20 -a 1 -x {0.0 4.0 6 ------- null}
h -t 6.30004544 -s 0 -d 2 -p tcp -e 1000 -c 1 -i 20 -a 1 -x {0.0 4.0 -1 ------- null}
r -t 6.30005344 -s 2 -d 0 -p ack -e 40 -c 1 -i 17 -a 1 -x {4.0 0.0 4 ------- null}
+ -t 6.30005344 -s 0 -d 2 -p tcp -e 1000 -c 1 -i 21 -a 1 -x {0.0 4.0 7 ------- null}
- -t 6.30005344 -s 0 -d 2 -p tcp -e 1000 -c 1 -i 21 -a 1 -x {0.0 4.0 7 ------- null}
h -t 6.30005344 -s 0 -d 2 -p tcp -e 1000 -c 1 -i 21 -a 1 -x {0.0 4.0 -1 ------- null}
r -t 6.60002496 -s 2 -d 1 -p ack -e 40 -c 2 -i 14 -a 2 -x {5.0 1.0 2 ------- null}
+ -t 6.60002496 -s 1 -d 2 -p tcp -e 1000 -c 2 -i 22 -a 2 -x {1.0 5.0 4 ------- null}
- -t 6.60002496 -s 1 -d 2 -p tcp -e 1000 -c 2 -i 22 -a 2 -x {1.0 5.0 4 ------- null}
h -t 6.60002496 -s 1 -d 2 -p tcp -e 1000 -c 2 -i 22 -a 2 -x {1.0 5.0 -1 ------- null}
r -t 6.80003944 -s 0 -d 2 -p tcp -e 1000 -c 1 -i 19 -a 1 -x {0.0 4.0 5 ------- null}
+ -t 6.80003944 -s 2 -d 3 -p tcp -e 1000 -c 1 -i 19 -a 1 -x {0.0 4.0 5 ------- null}
- -t 6.80003944 -s 2 -d 3 -p tcp -e 1000 -c 1 -i 19 -a 1 -x {0.0 4.0 5 ------- null}
h -t 6.80003944 -s 2 -d 3 -p tcp -e 1000 -c 1 -i 19 -a 1 -x {0.0 4.0 -1 ------- null}
r -t 6.80004744 -s 0 -d 2 -p tcp -e 1000 -c 1 -i 20 -a 1 -x {0.0 4.0 6 ------- null}
+ -t 6.80004744 -s 2 -d 3 -p tcp -e 1000 -c 1 -i 20 -a 1 -x {0.0 4.0 6 ------- null}
- -t 6.80004744 -s 2 -d 3 -p tcp -e 1000 -c 1 -i 20 -a 1 -x {0.0 4.0 6 ------- null}
h -t 6.80004744 -s 2 -d 3 -p tcp -e 1000 -c 1 -i 20 -a 1 -x {0.0 4.0 -1 ------- null}
r -t 6.80005544 -s 0 -d 2 -p tcp -e 1000 -c 1 -i 21 -a 1 -x {0.0 4.0 7 ------- null}
+ -t 6.80005544 -s 2 -d 3 -p tcp -e 1000 -c 1 -i 21 -a 1 -x {0.0 4.0 7 ------- null}
- -t 6.80005544 -s 2 -d 3 -p tcp -e 1000 -c 1 -i 21 -a 1 -x {0.0 4.0 7 ------- null}
h -t 6.80005544 -s 2 -d 3 -p tcp -e 1000 -c 1 -i 21 -a 1 -x {0.0 4.0 -1 ------- null}
r -t 6.85004744 -s 2 -d 3 -p tcp -e 1000 -c 1 -i 19 -a 1 -x {0.0 4.0 5 ------- null}
+ -t 6.85004744 -s 3 -d 4 -p tcp -e 1000 -c 1 -i 19 -a 1 -x {0.0 4.0 5 ------- null}
- -t 6.85004744 -s 3 -d 4 -p tcp -e 1000 -c 1 -i 19 -a 1 -x {0.0 4.0 5 ------- null}
h -t 6.85004744 -s 3 -d 4 -p tcp -e 1000 -c 1 -i 19 -a 1 -x {0.0 4.0 -1 ------- null}
r -t 6.85005544 -s 2 -d 3 -p tcp -e 1000 -c 1 -i 20 -a 1 -x {0.0 4.0 6 ------- null}
+ -t 6.85005544 -s 3 -d 4 -p tcp -e 1000 -c 1 -i 20 -a 1 -x {0.0 4.0 6 ------- null}
- -t 6.85005544 -s 3 -d 4 -p tcp -e 1000 -c 1 -i 20 -a 1 -x {0.0 4.0 6 ------- null}
h -t 6.85005544 -s 3 -d 4 -p tcp -e 1000 -c 1 -i 20 -a 1 -x {0.0 4.0 -1 ------- null}
r -t 6.85006344 -s 2 -d 3 -p tcp -e 1000 -c 1 -i 21 -a 1 -x {0.0 4.0 7 ------- null}
+ -t 6.85006344 -s 3 -d 4 -p tcp -e 1000 -c 1 -i 21 -a 1 -x {0.0 4.0 7 ------- null}
- -t 6.85006344 -s 3 -d 4 -p tcp -e 1000 -c 1 -i 21 -a 1 -x {0.0 4.0 7 ------- null}
h -t 6.85006344 -s 3 -d 4 -p tcp -e 1000 -c 1 -i 21 -a 1 -x {0.0 4.0 -1 ------- null}
r -t 7.10002248 -s 1 -d 2 -p tcp -e 1000 -c 2 -i 18 -a 2 -x {1.0 5.0 3 ------- null}
+ -t 7.10002248 -s 2 -d 3 -p tcp -e 1000 -c 2 -i 18 -a 2 -x {1.0 5.0 3 ------- null}
- -t 7.10002248 -s 2 -d 3 -p tcp -e 1000 -c 2 -i 18 -a 2 -x {1.0 5.0 3 ------- null}
h -t 7.10002248 -s 2 -d 3 -p tcp -e 1000 -c 2 -i 18 -a 2 -x {1.0 5.0 -1 ------- null}
r -t 7.15003048 -s 2 -d 3 -p tcp -e 1000 -c 2 -i 18 -a 2 -x {1.0 5.0 3 ------- null}
+ -t 7.15003048 -s 3 -d 5 -p tcp -e 1000 -c 2 -i 18 -a 2 -x {1.0 5.0 3 ------- null}
- -t 7.15003048 -s 3 -d 5 -p tcp -e 1000 -c 2 -i 18 -a 2 -x {1.0 5.0 3 ------- null}
h -t 7.15003048 -s 3 -d 5 -p tcp -e 1000 -c 2 -i 18 -a 2 -x {1.0 5.0 -1 ------- null}
r -t 7.35004944 -s 3 -d 4 -p tcp -e 1000 -c 1 -i 19 -a 1 -x {0.0 4.0 5 ------- null}
+ -t 7.35004944 -s 4 -d 3 -p ack -e 40 -c 1 -i 23 -a 1 -x {4.0 0.0 5 ------- null}
- -t 7.35004944 -s 4 -d 3 -p ack -e 40 -c 1 -i 23 -a 1 -x {4.0 0.0 5 ------- null}
h -t 7.35004944 -s 4 -d 3 -p ack -e 40 -c 1 -i 23 -a 1 -x {4.0 0.0 -1 ------- null}
r -t 7.35005744 -s 3 -d 4 -p tcp -e 1000 -c 1 -i 20 -a 1 -x {0.0 4.0 6 ------- null}
+ -t 7.35005744 -s 4 -d 3 -p ack -e 40 -c 1 -i 24 -a 1 -x {4.0 0.0 6 ------- null}
- -t 7.35005744 -s 4 -d 3 -p ack -e 40 -c 1 -i 24 -a 1 -x {4.0 0.0 6 ------- null}
h -t 7.35005744 -s 4 -d 3 -p ack -e 40 -c 1 -i 24 -a 1 -x {4.0 0.0 -1 ------- null}
r -t 7.35006544 -s 3 -d 4 -p tcp -e 1000 -c 1 -i 21 -a 1 -x {0.0 4.0 7 ------- null}
+ -t 7.35006544 -s 4 -d 3 -p ack -e 40 -c 1 -i 25 -a 1 -x {4.0 0.0 7 ------- null}
- -t 7.35006544 -s 4 -d 3 -p ack -e 40 -c 1 -i 25 -a 1 -x {4.0 0.0 7 ------- null}
h -t 7.35006544 -s 4 -d 3 -p ack -e 40 -c 1 -i 25 -a 1 -x {4.0 0.0 -1 ------- null}
r -t 7.40002696 -s 1 -d 2 -p tcp -e 1000 -c 2 -i 22 -a 2 -x {1.0 5.0 4 ------- null}
+ -t 7.40002696 -s 2 -d 3 -p tcp -e 1000 -c 2 -i 22 -a 2 -x {1.0 5.0 4 ------- null}
- -t 7.40002696 -s 2 -d 3 -p tcp -e 1000 -c 2 -i 22 -a 2 -x {1.0 5.0 4 ------- null}
h -t 7.40002696 -s 2 -d 3 -p tcp -e 1000 -c 2 -i 22 -a 2 -x {1.0 5.0 -1 ------- null}
r -t 7.45003496 -s 2 -d 3 -p tcp -e 1000 -c 2 -i 22 -a 2 -x {1.0 5.0 4 ------- null}
+ -t 7.45003496 -s 3 -d 5 -p tcp -e 1000 -c 2 -i 22 -a 2 -x {1.0 5.0 4 ------- null}
- -t 7.45003496 -s 3 -d 5 -p tcp -e 1000 -c 2 -i 22 -a 2 -x {1.0 5.0 4 ------- null}
h -t 7.45003496 -s 3 -d 5 -p tcp -e 1000 -c 2 -i 22 -a 2 -x {1.0 5.0 -1 ------- null}
r -t 7.85004952 -s 4 -d 3 -p ack -e 40 -c 1 -i 23 -a 1 -x {4.0 0.0 5 ------- null}
+ -t 7.85004952 -s 3 -d 2 -p ack -e 40 -c 1 -i 23 -a 1 -x {4.0 0.0 5 ------- null}
- -t 7.85004952 -s 3 -d 2 -p ack -e 40 -c 1 -i 23 -a 1 -x {4.0 0.0 5 ------- null}
h -t 7.85004952 -s 3 -d 2 -p ack -e 40 -c 1 -i 23 -a 1 -x {4.0 0.0 -1 ------- null}
r -t 7.85005752 -s 4 -d 3 -p ack -e 40 -c 1 -i 24 -a 1 -x {4.0 0.0 6 ------- null}
+ -t 7.85005752 -s 3 -d 2 -p ack -e 40 -c 1 -i 24 -a 1 -x {4.0 0.0 6 ------- null}
- -t 7.85005752 -s 3 -d 2 -p ack -e 40 -c 1 -i 24 -a 1 -x {4.0 0.0 6 ------- null}
h -t 7.85005752 -s 3 -d 2 -p ack -e 40 -c 1 -i 24 -a 1 -x {4.0 0.0 -1 ------- null}
r -t 7.85006552 -s 4 -d 3 -p ack -e 40 -c 1 -i 25 -a 1 -x {4.0 0.0 7 ------- null}
+ -t 7.85006552 -s 3 -d 2 -p ack -e 40 -c 1 -i 25 -a 1 -x {4.0 0.0 7 ------- null}
- -t 7.85006552 -s 3 -d 2 -p ack -e 40 -c 1 -i 25 -a 1 -x {4.0 0.0 7 ------- null}
h -t 7.85006552 -s 3 -d 2 -p ack -e 40 -c 1 -i 25 -a 1 -x {4.0 0.0 -1 ------- null}
r -t 7.90004984 -s 3 -d 2 -p ack -e 40 -c 1 -i 23 -a 1 -x {4.0 0.0 5 ------- null}
+ -t 7.90004984 -s 2 -d 0 -p ack -e 40 -c 1 -i 23 -a 1 -x {4.0 0.0 5 ------- null}
- -t 7.90004984 -s 2 -d 0 -p ack -e 40 -c 1 -i 23 -a 1 -x {4.0 0.0 5 ------- null}
h -t 7.90004984 -s 2 -d 0 -p ack -e 40 -c 1 -i 23 -a 1 -x {4.0 0.0 -1 ------- null}
r -t 7.90005784 -s 3 -d 2 -p ack -e 40 -c 1 -i 24 -a 1 -x {4.0 0.0 6 ------- null}
+ -t 7.90005784 -s 2 -d 0 -p ack -e 40 -c 1 -i 24 -a 1 -x {4.0 0.0 6 ------- null}
- -t 7.90005784 -s 2 -d 0 -p ack -e 40 -c 1 -i 24 -a 1 -x {4.0 0.0 6 ------- null}
h -t 7.90005784 -s 2 -d 0 -p ack -e 40 -c 1 -i 24 -a 1 -x {4.0 0.0 -1 ------- null}
r -t 7.90006584 -s 3 -d 2 -p ack -e 40 -c 1 -i 25 -a 1 -x {4.0 0.0 7 ------- null}
+ -t 7.90006584 -s 2 -d 0 -p ack -e 40 -c 1 -i 25 -a 1 -x {4.0 0.0 7 ------- null}
- -t 7.90006584 -s 2 -d 0 -p ack -e 40 -c 1 -i 25 -a 1 -x {4.0 0.0 7 ------- null}
h -t 7.90006584 -s 2 -d 0 -p ack -e 40 -c 1 -i 25 -a 1 -x {4.0 0.0 -1 ------- null}
r -t 7.95003248 -s 3 -d 5 -p tcp -e 1000 -c 2 -i 18 -a 2 -x {1.0 5.0 3 ------- null}
+ -t 7.95003248 -s 5 -d 3 -p ack -e 40 -c 2 -i 26 -a 2 -x {5.0 1.0 3 ------- null}
- -t 7.95003248 -s 5 -d 3 -p ack -e 40 -c 2 -i 26 -a 2 -x {5.0 1.0 3 ------- null}
h -t 7.95003248 -s 5 -d 3 -p ack -e 40 -c 2 -i 26 -a 2 -x {5.0 1.0 -1 ------- null}
r -t 8.25003696 -s 3 -d 5 -p tcp -e 1000 -c 2 -i 22 -a 2 -x {1.0 5.0 4 ------- null}
+ -t 8.25003696 -s 5 -d 3 -p ack -e 40 -c 2 -i 27 -a 2 -x {5.0 1.0 4 ------- null}
- -t 8.25003696 -s 5 -d 3 -p ack -e 40 -c 2 -i 27 -a 2 -x {5.0 1.0 4 ------- null}
h -t 8.25003696 -s 5 -d 3 -p ack -e 40 -c 2 -i 27 -a 2 -x {5.0 1.0 -1 ------- null}
r -t 8.40004992 -s 2 -d 0 -p ack -e 40 -c 1 -i 23 -a 1 -x {4.0 0.0 5 ------- null}
+ -t 8.40004992 -s 0 -d 2 -p tcp -e 1000 -c 1 -i 28 -a 1 -x {0.0 4.0 8 ------- null}
- -t 8.40004992 -s 0 -d 2 -p tcp -e 1000 -c 1 -i 28 -a 1 -x {0.0 4.0 8 ------- null}
h -t 8.40004992 -s 0 -d 2 -p tcp -e 1000 -c 1 -i 28 -a 1 -x {0.0 4.0 -1 ------- null}
+ -t 8.40004992 -s 0 -d 2 -p tcp -e 1000 -c 1 -i 29 -a 1 -x {0.0 4.0 9 ------- null}
- -t 8.40005192 -s 0 -d 2 -p tcp -e 1000 -c 1 -i 29 -a 1 -x {0.0 4.0 9 ------- null}
h -t 8.40005192 -s 0 -d 2 -p tcp -e 1000 -c 1 -i 29 -a 1 -x {0.0 4.0 -1 ------- null}
r -t 8.40005792 -s 2 -d 0 -p ack -e 40 -c 1 -i 24 -a 1 -x {4.0 0.0 6 ------- null}
+ -t 8.40005792 -s 0 -d 2 -p tcp -e 1000 -c 1 -i 30 -a 1 -x {0.0 4.0 10 ------- null}
- -t 8.40005792 -s 0 -d 2 -p tcp -e 1000 -c 1 -i 30 -a 1 -x {0.0 4.0 10 ------- null}
h -t 8.40005792 -s 0 -d 2 -p tcp -e 1000 -c 1 -i 30 -a 1 -x {0.0 4.0 -1 ------- null}
+ -t 8.40005792 -s 0 -d 2 -p tcp -e 1000 -c 1 -i 31 -a 1 -x {0.0 4.0 11 ------- null}
- -t 8.40005992 -s 0 -d 2 -p tcp -e 1000 -c 1 -i 31 -a 1 -x {0.0 4.0 11 ------- null}
h -t 8.40005992 -s 0 -d 2 -p tcp -e 1000 -c 1 -i 31 -a 1 -x {0.0 4.0 -1 ------- null}
r -t 8.40006592 -s 2 -d 0 -p ack -e 40 -c 1 -i 25 -a 1 -x {4.0 0.0 7 ------- null}
+ -t 8.40006592 -s 0 -d 2 -p tcp -e 1000 -c 1 -i 32 -a 1 -x {0.0 4.0 12 ------- null}
- -t 8.40006592 -s 0 -d 2 -p tcp -e 1000 -c 1 -i 32 -a 1 -x {0.0 4.0 12 ------- null}
h -t 8.40006592 -s 0 -d 2 -p tcp -e 1000 -c 1 -i 32 -a 1 -x {0.0 4.0 -1 ------- null}
+ -t 8.40006592 -s 0 -d 2 -p tcp -e 1000 -c 1 -i 33 -a 1 -x {0.0 4.0 13 ------- null}
- -t 8.40006792 -s 0 -d 2 -p tcp -e 1000 -c 1 -i 33 -a 1 -x {0.0 4.0 13 ------- null}
h -t 8.40006792 -s 0 -d 2 -p tcp -e 1000 -c 1 -i 33 -a 1 -x {0.0 4.0 -1 ------- null}
r -t 8.75003256 -s 5 -d 3 -p ack -e 40 -c 2 -i 26 -a 2 -x {5.0 1.0 3 ------- null}
+ -t 8.75003256 -s 3 -d 2 -p ack -e 40 -c 2 -i 26 -a 2 -x {5.0 1.0 3 ------- null}
- -t 8.75003256 -s 3 -d 2 -p ack -e 40 -c 2 -i 26 -a 2 -x {5.0 1.0 3 ------- null}
h -t 8.75003256 -s 3 -d 2 -p ack -e 40 -c 2 -i 26 -a 2 -x {5.0 1.0 -1 ------- null}
r -t 8.80003288 -s 3 -d 2 -p ack -e 40 -c 2 -i 26 -a 2 -x {5.0 1.0 3 ------- null}
+ -t 8.80003288 -s 2 -d 1 -p ack -e 40 -c 2 -i 26 -a 2 -x {5.0 1.0 3 ------- null}
- -t 8.80003288 -s 2 -d 1 -p ack -e 40 -c 2 -i 26 -a 2 -x {5.0 1.0 3 ------- null}
h -t 8.80003288 -s 2 -d 1 -p ack -e 40 -c 2 -i 26 -a 2 -x {5.0 1.0 -1 ------- null}
r -t 8.90005192 -s 0 -d 2 -p tcp -e 1000 -c 1 -i 28 -a 1 -x {0.0 4.0 8 ------- null}
+ -t 8.90005192 -s 2 -d 3 -p tcp -e 1000 -c 1 -i 28 -a 1 -x {0.0 4.0 8 ------- null}
- -t 8.90005192 -s 2 -d 3 -p tcp -e 1000 -c 1 -i 28 -a 1 -x {0.0 4.0 8 ------- null}
h -t 8.90005192 -s 2 -d 3 -p tcp -e 1000 -c 1 -i 28 -a 1 -x {0.0 4.0 -1 ------- null}
r -t 8.90005392 -s 0 -d 2 -p tcp -e 1000 -c 1 -i 29 -a 1 -x {0.0 4.0 9 ------- null}