0.00000  0  0  4  0  cwnd_ 2.000 
0.00000  0  0  4  0  ssthresh_ 20
0.00000  0  0  4  0  ack_ -1
0.00000  0  0  4  0  maxseq_ -1
0.00000  0  0  4  0  rtt_ 0.000 
0.00000  1  0  5  0  cwnd_ 2.000 
0.00000  1  0  5  0  ssthresh_ 20
0.00000  1  0  5  0  ack_ -1
0.00000  1  0  5  0  maxseq_ -1
0.00000  1  0  5  0  rtt_ 0.000 
0.00000  0  0  4  0  ssthresh_ 1000
0.00000  1  0  5  0  ssthresh_ 1000
+ 0 1 2 tcp 40 ------- 2 1.0 5.0 0 0
- 0 1 2 tcp 40 ------- 2 1.0 5.0 0 0
0.00000  1  0  5  0  maxseq_ 0
+ 0 1 2 tcp 1040 ------- 2 1.0 5.0 1 1
0.00000  1  0  5  0  maxseq_ 1
+ 0 0 2 tcp 40 ------- 1 0.0 4.0 0 2
- 0 0 2 tcp 40 ------- 1 0.0 4.0 0 2
0.00000  0  0  4  0  maxseq_ 0
+ 0 0 2 tcp 1040 ------- 1 0.0 4.0 1 3
0.00000  0  0  4  0  maxseq_ 1
- 0 1 2 tcp 1040 ------- 2 1.0 5.0 1 1
- 0 0 2 tcp 1040 ------- 1 0.0 4.0 1 3
r 0.5 0 2 tcp 40 ------- 1 0.0 4.0 0 2
+ 0.5 2 3 tcp 40 ------- 1 0.0 4.0 0 2
- 0.5 2 3 tcp 40 ------- 1 0.0 4.0 0 2
r 0.500002 0 2 tcp 1040 ------- 1 0.0 4.0 1 3
+ 0.500002 2 3 tcp 1040 ------- 1 0.0 4.0 1 3
- 0.500002 2 3 tcp 1040 ------- 1 0.0 4.0 1 3
r 0.550001 2 3 tcp 40 ------- 1 0.0 4.0 0 2
+ 0.550001 3 4 tcp 40 ------- 1 0.0 4.0 0 2
- 0.550001 3 4 tcp 40 ------- 1 0.0 4.0 0 2
r 0.550019 2 3 tcp 1040 ------- 1 0.0 4.0 1 3
+ 0.550019 3 4 tcp 1040 ------- 1 0.0 4.0 1 3
- 0.550019 3 4 tcp 1040 ------- 1 0.0 4.0 1 3
r 0.8 1 2 tcp 40 ------- 2 1.0 5.0 0 0
+ 0.8 2 3 tcp 40 ------- 2 1.0 5.0 0 0
- 0.8 2 3 tcp 40 ------- 2 1.0 5.0 0 0
r 0.800002 1 2 tcp 1040 ------- 2 1.0 5.0 1 1
+ 0.800002 2 3 tcp 1040 ------- 2 1.0 5.0 1 1
- 0.800002 2 3 tcp 1040 ------- 2 1.0 5.0 1 1
r 0.850001 2 3 tcp 40 ------- 2 1.0 5.0 0 0
+ 0.850001 3 5 tcp 40 ------- 2 1.0 5.0 0 0
- 0.850001 3 5 tcp 40 ------- 2 1.0 5.0 0 0
r 0.850019 2 3 tcp 1040 ------- 2 1.0 5.0 1 1
+ 0.850019 3 5 tcp 1040 ------- 2 1.0 5.0 1 1
- 0.850019 3 5 tcp 1040 ------- 2 1.0 5.0 1 1
r 1.050001 3 4 tcp 40 ------- 1 0.0 4.0 0 2
+ 1.050001 4 3 ack 40 ------- 1 4.0 0.0 0 4
- 1.050001 4 3 ack 40 ------- 1 4.0 0.0 0 4
r 1.050021 3 4 tcp 1040 ------- 1 0.0 4.0 1 3
+ 1.050021 4 3 ack 40 ------- 1 4.0 0.0 1 5
- 1.050021 4 3 ack 40 ------- 1 4.0 0.0 1 5
r 1.550001 4 3 ack 40 ------- 1 4.0 0.0 0 4
+ 1.550001 3 2 ack 40 ------- 1 4.0 0.0 0 4
- 1.550001 3 2 ack 40 ------- 1 4.0 0.0 0 4
r 1.550021 4 3 ack 40 ------- 1 4.0 0.0 1 5
+ 1.550021 3 2 ack 40 ------- 1 4.0 0.0 1 5
- 1.550021 3 2 ack 40 ------- 1 4.0 0.0 1 5
r 1.600002 3 2 ack 40 ------- 1 4.0 0.0 0 4
+ 1.600002 2 0 ack 40 ------- 1 4.0 0.0 0 4
- 1.600002 2 0 ack 40 ------- 1 4.0 0.0 0 4
r 1.600022 3 2 ack 40 ------- 1 4.0 0.0 1 5
+ 1.600022 2 0 ack 40 ------- 1 4.0 0.0 1 5
- 1.600022 2 0 ack 40 ------- 1 4.0 0.0 1 5
r 1.650001 3 5 tcp 40 ------- 2 1.0 5.0 0 0
+ 1.650001 5 3 ack 40 ------- 2 5.0 1.0 0 6
- 1.650001 5 3 ack 40 ------- 2 5.0 1.0 0 6
r 1.650021 3 5 tcp 1040 ------- 2 1.0 5.0 1 1
+ 1.650021 5 3 ack 40 ------- 2 5.0 1.0 1 7
- 1.650021 5 3 ack 40 ------- 2 5.0 1.0 1 7
r 2.100002 2 0 ack 40 ------- 1 4.0 0.0 0 4
2.10000  0  0  4  0  ack_ 0
2.10000  0  0  4  0  rtt_ 2.100 
2.10000  0  0  4  0  cwnd_ 3.000 
+ 2.100002 0 2 tcp 1040 ------- 1 0.0 4.0 2 8
- 2.100002 0 2 tcp 1040 ------- 1 0.0 4.0 2 8
2.10000  0  0  4  0  maxseq_ 2
+ 2.100002 0 2 tcp 1040 ------- 1 0.0 4.0 3 9
2.10000  0  0  4  0  maxseq_ 3
- 2.100004 0 2 tcp 1040 ------- 1 0.0 4.0 3 9
r 2.100022 2 0 ack 40 ------- 1 4.0 0.0 1 5
2.10002  0  0  4  0  ack_ 1
2.10002  0  0  4  0  cwnd_ 4.000 
+ 2.100022 0 2 tcp 1040 ------- 1 0.0 4.0 4 10
- 2.100022 0 2 tcp 1040 ------- 1 0.0 4.0 4 10
2.10002  0  0  4  0  maxseq_ 4
+ 2.100022 0 2 tcp 1040 ------- 1 0.0 4.0 5 11
2.10002  0  0  4  0  maxseq_ 5
- 2.100024 0 2 tcp 1040 ------- 1 0.0 4.0 5 11
r 2.450001 5 3 ack 40 ------- 2 5.0 1.0 0 6
+ 2.450001 3 2 ack 40 ------- 2 5.0 1.0 0 6
- 2.450001 3 2 ack 40 ------- 2 5.0 1.0 0 6
r 2.450021 5 3 ack 40 ------- 2 5.0 1.0 1 7
+ 2.450021 3 2 ack 40 ------- 2 5.0 1.0 1 7
- 2.450021 3 2 ack 40 ------- 2 5.0 1.0 1 7
r 2.500002 3 2 ack 40 ------- 2 5.0 1.0 0 6
+ 2.500002 2 1 ack 40 ------- 2 5.0 1.0 0 6
- 2.500002 2 1 ack 40 ------- 2 5.0 1.0 0 6
r 2.500022 3 2 ack 40 ------- 2 5.0 1.0 1 7
+ 2.500022 2 1 ack 40 ------- 2 5.0 1.0 1 7
- 2.500022 2 1 ack 40 ------- 2 5.0 1.0 1 7
r 2.600004 0 2 tcp 1040 ------- 1 0.0 4.0 2 8
+ 2.600004 2 3 tcp 1040 ------- 1 0.0 4.0 2 8
- 2.600004 2 3 tcp 1040 ------- 1 0.0 4.0 2 8
r 2.600006 0 2 tcp 1040 ------- 1 0.0 4.0 3 9
+ 2.600006 2 3 tcp 1040 ------- 1 0.0 4.0 3 9
- 2.60002 2 3 tcp 1040 ------- 1 0.0 4.0 3 9
r 2.600024 0 2 tcp 1040 ------- 1 0.0 4.0 4 10
+ 2.600024 2 3 tcp 1040 ------- 1 0.0 4.0 4 10
r 2.600026 0 2 tcp 1040 ------- 1 0.0 4.0 5 11
+ 2.600026 2 3 tcp 1040 ------- 1 0.0 4.0 5 11
- 2.600037 2 3 tcp 1040 ------- 1 0.0 4.0 4 10
- 2.600054 2 3 tcp 1040 ------- 1 0.0 4.0 5 11
r 2.65002 2 3 tcp 1040 ------- 1 0.0 4.0 2 8
+ 2.65002 3 4 tcp 1040 ------- 1 0.0 4.0 2 8
- 2.65002 3 4 tcp 1040 ------- 1 0.0 4.0 2 8
r 2.650037 2 3 tcp 1040 ------- 1 0.0 4.0 3 9
+ 2.650037 3 4 tcp 1040 ------- 1 0.0 4.0 3 9
- 2.650037 3 4 tcp 1040 ------- 1 0.0 4.0 3 9
r 2.650054 2 3 tcp 1040 ------- 1 0.0 4.0 4 10
+ 2.650054 3 4 tcp 1040 ------- 1 0.0 4.0 4 10
- 2.650054 3 4 tcp 1040 ------- 1 0.0 4.0 4 10
r 2.65007 2 3 tcp 1040 ------- 1 0.0 4.0 5 11
+ 2.65007 3 4 tcp 1040 ------- 1 0.0 4.0 5 11
- 2.65007 3 4 tcp 1040 ------- 1 0.0 4.0 5 11
3.00000  1  0  5  0  cwnd_ 1.000 
3.00000  1  0  5  0  ssthresh_ 2
+ 3 1 2 tcp 40 ---A--- 2 1.0 5.0 0 12
- 3 1 2 tcp 40 ---A--- 2 1.0 5.0 0 12
r 3.150022 3 4 tcp 1040 ------- 1 0.0 4.0 2 8
+ 3.150022 4 3 ack 40 ------- 1 4.0 0.0 2 13
- 3.150022 4 3 ack 40 ------- 1 4.0 0.0 2 13
r 3.150039 3 4 tcp 1040 ------- 1 0.0 4.0 3 9
+ 3.150039 4 3 ack 40 ------- 1 4.0 0.0 3 14
- 3.150039 4 3 ack 40 ------- 1 4.0 0.0 3 14
r 3.150056 3 4 tcp 1040 ------- 1 0.0 4.0 4 10
+ 3.150056 4 3 ack 40 ------- 1 4.0 0.0 4 15
- 3.150056 4 3 ack 40 ------- 1 4.0 0.0 4 15
r 3.150072 3 4 tcp 1040 ------- 1 0.0 4.0 5 11
+ 3.150072 4 3 ack 40 ------- 1 4.0 0.0 5 16
- 3.150072 4 3 ack 40 ------- 1 4.0 0.0 5 16
r 3.300002 2 1 ack 40 ------- 2 5.0 1.0 0 6
3.30000  1  0  5  0  ack_ 0
3.30000  1  0  5  0  cwnd_ 2.000 
+ 3.300002 1 2 tcp 1040 ------- 2 1.0 5.0 1 17
- 3.300002 1 2 tcp 1040 ------- 2 1.0 5.0 1 17
+ 3.300002 1 2 tcp 1040 ------- 2 1.0 5.0 2 18
3.30000  1  0  5  0  maxseq_ 2
- 3.300004 1 2 tcp 1040 ------- 2 1.0 5.0 2 18
r 3.300022 2 1 ack 40 ------- 2 5.0 1.0 1 7
3.30002  1  0  5  0  ack_ 1
3.30002  1  0  5  0  cwnd_ 3.000 
+ 3.300022 1 2 tcp 1040 ------- 2 1.0 5.0 3 19
- 3.300022 1 2 tcp 1040 ------- 2 1.0 5.0 3 19
3.30002  1  0  5  0  maxseq_ 3
+ 3.300022 1 2 tcp 1040 ------- 2 1.0 5.0 4 20
3.30002  1  0  5  0  maxseq_ 4
- 3.300024 1 2 tcp 1040 ------- 2 1.0 5.0 4 20
r 3.650022 4 3 ack 40 ------- 1 4.0 0.0 2 13
+ 3.650022 3 2 ack 40 ------- 1 4.0 0.0 2 13
- 3.650022 3 2 ack 40 ------- 1 4.0 0.0 2 13
r 3.650039 4 3 ack 40 ------- 1 4.0 0.0 3 14
+ 3.650039 3 2 ack 40 ------- 1 4.0 0.0 3 14
- 3.650039 3 2 ack 40 ------- 1 4.0 0.0 3 14
r 3.650056 4 3 ack 40 ------- 1 4.0 0.0 4 15
+ 3.650056 3 2 ack 40 ------- 1 4.0 0.0 4 15
- 3.650056 3 2 ack 40 ------- 1 4.0 0.0 4 15
r 3.650072 4 3 ack 40 ------- 1 4.0 0.0 5 16
+ 3.650072 3 2 ack 40 ------- 1 4.0 0.0 5 16
- 3.650072 3 2 ack 40 ------- 1 4.0 0.0 5 16
r 3.700023 3 2 ack 40 ------- 1 4.0 0.0 2 13
+ 3.700023 2 0 ack 40 ------- 1 4.0 0.0 2 13
- 3.700023 2 0 ack 40 ------- 1 4.0 0.0 2 13
r 3.70004 3 2 ack 40 ------- 1 4.0 0.0 3 14
+ 3.70004 2 0 ack 40 ------- 1 4.0 0.0 3 14
- 3.70004 2 0 ack 40 ------- 1 4.0 0.0 3 14
r 3.700056 3 2 ack 40 ------- 1 4.0 0.0 4 15
+ 3.700056 2 0 ack 40 ------- 1 4.0 0.0 4 15
- 3.700056 2 0 ack 40 ------- 1 4.0 0.0 4 15
r 3.700073 3 2 ack 40 ------- 1 4.0 0.0 5 16
+ 3.700073 2 0 ack 40 ------- 1 4.0 0.0 5 16
- 3.700073 2 0 ack 40 ------- 1 4.0 0.0 5 16
r 3.8 1 2 tcp 40 ---A--- 2 1.0 5.0 0 12
+ 3.8 2 3 tcp 40 ---A--- 2 1.0 5.0 0 12
- 3.8 2 3 tcp 40 ---A--- 2 1.0 5.0 0 12
r 3.850001 2 3 tcp 40 ---A--- 2 1.0 5.0 0 12
+ 3.850001 3 5 tcp 40 ---A--- 2 1.0 5.0 0 12
- 3.850001 3 5 tcp 40 ---A--- 2 1.0 5.0 0 12
r 4.100004 1 2 tcp 1040 ------- 2 1.0 5.0 1 17
+ 4.100004 2 3 tcp 1040 ------- 2 1.0 5.0 1 17
- 4.100004 2 3 tcp 1040 ------- 2 1.0 5.0 1 17
r 4.100006 1 2 tcp 1040 ------- 2 1.0 5.0 2 18
+ 4.100006 2 3 tcp 1040 ------- 2 1.0 5.0 2 18
- 4.10002 2 3 tcp 1040 ------- 2 1.0 5.0 2 18
r 4.100024 1 2 tcp 1040 ------- 2 1.0 5.0 3 19
+ 4.100024 2 3 tcp 1040 ------- 2 1.0 5.0 3 19
r 4.100026 1 2 tcp 1040 ------- 2 1.0 5.0 4 20
+ 4.100026 2 3 tcp 1040 ------- 2 1.0 5.0 4 20
- 4.100037 2 3 tcp 1040 ------- 2 1.0 5.0 3 19
- 4.100054 2 3 tcp 1040 ------- 2 1.0 5.0 4 20
r 4.15002 2 3 tcp 1040 ------- 2 1.0 5.0 1 17
+ 4.15002 3 5 tcp 1040 ------- 2 1.0 5.0 1 17
- 4.15002 3 5 tcp 1040 ------- 2 1.0 5.0 1 17
r 4.150037 2 3 tcp 1040 ------- 2 1.0 5.0 2 18
+ 4.150037 3 5 tcp 1040 ------- 2 1.0 5.0 2 18
- 4.150037 3 5 tcp 1040 ------- 2 1.0 5.0 2 18
r 4.150054 2 3 tcp 1040 ------- 2 1.0 5.0 3 19
+ 4.150054 3 5 tcp 1040 ------- 2 1.0 5.0 3 19
- 4.150054 3 5 tcp 1040 ------- 2 1.0 5.0 3 19
r 4.15007 2 3 tcp 1040 ------- 2 1.0 5.0 4 20
+ 4.15007 3 5 tcp 1040 ------- 2 1.0 5.0 4 20
- 4.15007 3 5 tcp 1040 ------- 2 1.0 5.0 4 20
r 4.200023 2 0 ack 40 ------- 1 4.0 0.0 2 13
4.20002  0  0  4  0  ack_ 2
4.20002  0  0  4  0  cwnd_ 5.000 
+ 4.200023 0 2 tcp 1040 ------- 1 0.0 4.0 6 21
- 4.200023 0 2 tcp 1040 ------- 1 0.0 4.0 6 21
4.20002  0  0  4  0  maxseq_ 6
+ 4.200023 0 2 tcp 1040 ------- 1 0.0 4.0 7 22
4.20002  0  0  4  0  maxseq_ 7
- 4.200025 0 2 tcp 1040 ------- 1 0.0 4.0 7 22
r 4.20004 2 0 ack 40 ------- 1 4.0 0.0 3 14
4.20004  0  0  4  0  ack_ 3
4.20004  0  0  4  0  cwnd_ 6.000 
+ 4.20004 0 2 tcp 1040 ------- 1 0.0 4.0 8 23
- 4.20004 0 2 tcp 1040 ------- 1 0.0 4.0 8 23
4.20004  0  0  4  0  maxseq_ 8
+ 4.20004 0 2 tcp 1040 ------- 1 0.0 4.0 9 24
4.20004  0  0  4  0  maxseq_ 9
- 4.200042 0 2 tcp 1040 ------- 1 0.0 4.0 9 24
r 4.200056 2 0 ack 40 ------- 1 4.0 0.0 4 15
4.20006  0  0  4  0  ack_ 4
4.20006  0  0  4  0  cwnd_ 7.000 
+ 4.200056 0 2 tcp 1040 ------- 1 0.0 4.0 10 25
- 4.200056 0 2 tcp 1040 ------- 1 0.0 4.0 10 25
4.20006  0  0  4  0  maxseq_ 10
+ 4.200056 0 2 tcp 1040 ------- 1 0.0 4.0 11 26
4.20006  0  0  4  0  maxseq_ 11
- 4.200059 0 2 tcp 1040 ------- 1 0.0 4.0 11 26
r 4.200073 2 0 ack 40 ------- 1 4.0 0.0 5 16
4.20007  0  0  4  0  ack_ 5
4.20007  0  0  4  0  cwnd_ 8.000 
+ 4.200073 0 2 tcp 1040 ------- 1 0.0 4.0 12 27
- 4.200073 0 2 tcp 1040 ------- 1 0.0 4.0 12 27
4.20007  0  0  4  0  maxseq_ 12
+ 4.200073 0 2 tcp 1040 ------- 1 0.0 4.0 13 28
4.20007  0  0  4  0  maxseq_ 13
- 4.200075 0 2 tcp 1040 ------- 1 0.0 4.0 13 28
r 4.650001 3 5 tcp 40 ---A--- 2 1.0 5.0 0 12
+ 4.650001 5 3 ack 40 ------- 2 5.0 1.0 1 29
- 4.650001 5 3 ack 40 ------- 2 5.0 1.0 1 29
r 4.700025 0 2 tcp 1040 ------- 1 0.0 4.0 6 21
+ 4.700025 2 3 tcp 1040 ------- 1 0.0 4.0 6 21
- 4.700025 2 3 tcp 1040 ------- 1 0.0 4.0 6 21
r 4.700027 0 2 tcp 1040 ------- 1 0.0 4.0 7 22
+ 4.700027 2 3 tcp 1040 ------- 1 0.0 4.0 7 22
r 4.700042 0 2 tcp 1040 ------- 1 0.0 4.0 8 23
+ 4.700042 2 3 tcp 1040 ------- 1 0.0 4.0 8 23
- 4.700042 2 3 tcp 1040 ------- 1 0.0 4.0 7 22
r 4.700044 0 2 tcp 1040 ------- 1 0.0 4.0 9 24
+ 4.700044 2 3 tcp 1040 ------- 1 0.0 4.0 9 24
r 4.700059 0 2 tcp 1040 ------- 1 0.0 4.0 10 25
+ 4.700059 2 3 tcp 1040 ------- 1 0.0 4.0 10 25
- 4.700059 2 3 tcp 1040 ------- 1 0.0 4.0 8 23
r 4.700061 0 2 tcp 1040 ------- 1 0.0 4.0 11 26
+ 4.700061 2 3 tcp 1040 ------- 1 0.0 4.0 11 26
r 4.700075 0 2 tcp 1040 ------- 1 0.0 4.0 12 27
+ 4.700075 2 3 tcp 1040 ------- 1 0.0 4.0 12 27
- 4.700075 2 3 tcp 1040 ------- 1 0.0 4.0 9 24
r 4.700077 0 2 tcp 1040 ------- 1 0.0 4.0 13 28
+ 4.700077 2 3 tcp 1040 ------- 1 0.0 4.0 13 28
- 4.700092 2 3 tcp 1040 ------- 1 0.0 4.0 10 25
- 4.700108 2 3 tcp 1040 ------- 1 0.0 4.0 11 26
- 4.700125 2 3 tcp 1040 ------- 1 0.0 4.0 12 27
- 4.700142 2 3 tcp 1040 ------- 1 0.0 4.0 13 28
r 4.750042 2 3 tcp 1040 ------- 1 0.0 4.0 6 21
+ 4.750042 3 4 tcp 1040 ------- 1 0.0 4.0 6 21
- 4.750042 3 4 tcp 1040 ------- 1 0.0 4.0 6 21
r 4.750059 2 3 tcp 1040 ------- 1 0.0 4.0 7 22
+ 4.750059 3 4 tcp 1040 ------- 1 0.0 4.0 7 22
- 4.750059 3 4 tcp 1040 ------- 1 0.0 4.0 7 22
r 4.750075 2 3 tcp 1040 ------- 1 0.0 4.0 8 23
+ 4.750075 3 4 tcp 1040 ------- 1 0.0 4.0 8 23
- 4.750075 3 4 tcp 1040 ------- 1 0.0 4.0 8 23
r 4.750092 2 3 tcp 1040 ------- 1 0.0 4.0 9 24
+ 4.750092 3 4 tcp 1040 ------- 1 0.0 4.0 9 24
- 4.750092 3 4 tcp 1040 ------- 1 0.0 4.0 9 24
r 4.750108 2 3 tcp 1040 ------- 1 0.0 4.0 10 25
+ 4.750108 3 4 tcp 1040 ------- 1 0.0 4.0 10 25
- 4.750108 3 4 tcp 1040 ------- 1 0.0 4.0 10 25
r 4.750125 2 3 tcp 1040 ------- 1 0.0 4.0 11 26
+ 4.750125 3 4 tcp 1040 ------- 1 0.0 4.0 11 26
- 4.750125 3 4 tcp 1040 ------- 1 0.0 4.0 11 26
r 4.750142 2 3 tcp 1040 ------- 1 0.0 4.0 12 27
+ 4.750142 3 4 tcp 1040 ------- 1 0.0 4.0 12 27
- 4.750142 3 4 tcp 1040 ------- 1 0.0 4.0 12 27
r 4.750158 2 3 tcp 1040 ------- 1 0.0 4.0 13 28
+ 4.750158 3 4 tcp 1040 ------- 1 0.0 4.0 13 28
- 4.750158 3 4 tcp 1040 ------- 1 0.0 4.0 13 28
r 4.950022 3 5 tcp 1040 ------- 2 1.0 5.0 1 17
+ 4.950022 5 3 ack 40 ------- 2 5.0 1.0 1 30
- 4.950022 5 3 ack 40 ------- 2 5.0 1.0 1 30
r 4.950039 3 5 tcp 1040 ------- 2 1.0 5.0 2 18
+ 4.950039 5 3 ack 40 ------- 2 5.0 1.0 2 31
- 4.950039 5 3 ack 40 ------- 2 5.0 1.0 2 31
r 4.950056 3 5 tcp 1040 ------- 2 1.0 5.0 3 19
+ 4.950056 5 3 ack 40 ------- 2 5.0 1.0 3 32
- 4.950056 5 3 ack 40 ------- 2 5.0 1.0 3 32
r 4.950072 3 5 tcp 1040 ------- 2 1.0 5.0 4 20
+ 4.950072 5 3 ack 40 ------- 2 5.0 1.0 4 33
- 4.950072 5 3 ack 40 ------- 2 5.0 1.0 4 33
r 5.250044 3 4 tcp 1040 ------- 1 0.0 4.0 6 21
+ 5.250044 4 3 ack 40 ------- 1 4.0 0.0 6 34
- 5.250044 4 3 ack 40 ------- 1 4.0 0.0 6 34
r 5.250061 3 4 tcp 1040 ------- 1 0.0 4.0 7 22
+ 5.250061 4 3 ack 40 ------- 1 4.0 0.0 7 35
- 5.250061 4 3 ack 40 ------- 1 4.0 0.0 7 35
r 5.250077 3 4 tcp 1040 ------- 1 0.0 4.0 8 23
+ 5.250077 4 3 ack 40 ------- 1 4.0 0.0 8 36
- 5.250077 4 3 ack 40 ------- 1 4.0 0.0 8 36
r 5.250094 3 4 tcp 1040 ------- 1 0.0 4.0 9 24
+ 5.250094 4 3 ack 40 ------- 1 4.0 0.0 9 37
- 5.250094 4 3 ack 40 ------- 1 4.0 0.0 9 37
r 5.250111 3 4 tcp 1040 ------- 1 0.0 4.0 10 25
+ 5.250111 4 3 ack 40 ------- 1 4.0 0.0 10 38
- 5.250111 4 3 ack 40 ------- 1 4.0 0.0 10 38
r 5.250127 3 4 tcp 1040 ------- 1 0.0 4.0 11 26
+ 5.250127 4 3 ack 40 ------- 1 4.0 0.0 11 39
- 5.250127 4 3 ack 40 ------- 1 4.0 0.0 11 39
r 5.250144 3 4 tcp 1040 ------- 1 0.0 4.0 12 27
+ 5.250144 4 3 ack 40 ------- 1 4.0 0.0 12 40
- 5.250144 4 3 ack 40 ------- 1 4.0 0.0 12 40
r 5.25016 3 4 tcp 1040 ------- 1 0.0 4.0 13 28
+ 5.25016 4 3 ack 40 ------- 1 4.0 0.0 13 41
- 5.25016 4 3 ack 40 ------- 1 4.0 0.0 13 41
r 5.450001 5 3 ack 40 ------- 2 5.0 1.0 1 29
+ 5.450001 3 2 ack 40 ------- 2 5.0 1.0 1 29
- 5.450001 3 2 ack 40 ------- 2 5.0 1.0 1 29
r 5.500002 3 2 ack 40 ------- 2 5.0 1.0 1 29
+ 5.500002 2 1 ack 40 ------- 2 5.0 1.0 1 29
- 5.500002 2 1 ack 40 ------- 2 5.0 1.0 1 29
r 5.750022 5 3 ack 40 ------- 2 5.0 1.0 1 30
+ 5.750022 3 2 ack 40 ------- 2 5.0 1.0 1 30
- 5.750022 3 2 ack 40 ------- 2 5.0 1.0 1 30
r 5.750039 5 3 ack 40 ------- 2 5.0 1.0 2 31
+ 5.750039 3 2 ack 40 ------- 2 5.0 1.0 2 31
- 5.750039 3 2 ack 40 ------- 2 5.0 1.0 2 31
r 5.750044 4 3 ack 40 ------- 1 4.0 0.0 6 34
+ 5.750044 3 2 ack 40 ------- 1 4.0 0.0 6 34
- 5.750044 3 2 ack 40 ------- 1 4.0 0.0 6 34
r 5.750056 5 3 ack 40 ------- 2 5.0 1.0 3 32
+ 5.750056 3 2 ack 40 ------- 2 5.0 1.0 3 32
- 5.750056 3 2 ack 40 ------- 2 5.0 1.0 3 32
r 5.750061 4 3 ack 40 ------- 1 4.0 0.0 7 35
+ 5.750061 3 2 ack 40 ------- 1 4.0 0.0 7 35
- 5.750061 3 2 ack 40 ------- 1 4.0 0.0 7 35
r 5.750072 5 3 ack 40 ------- 2 5.0 1.0 4 33
+ 5.750072 3 2 ack 40 ------- 2 5.0 1.0 4 33
- 5.750072 3 2 ack 40 ------- 2 5.0 1.0 4 33
r 5.750077 4 3 ack 40 ------- 1 4.0 0.0 8 36
+ 5.750077 3 2 ack 40 ------- 1 4.0 0.0 8 36
- 5.750077 3 2 ack 40 ------- 1 4.0 0.0 8 36
r 5.750094 4 3 ack 40 ------- 1 4.0 0.0 9 37
+ 5.750094 3 2 ack 40 ------- 1 4.0 0.0 9 37
- 5.750094 3 2 ack 40 ------- 1 4.0 0.0 9 37
r 5.750111 4 3 ack 40 ------- 1 4.0 0.0 10 38
+ 5.750111 3 2 ack 40 ------- 1 4.0 0.0 10 38
- 5.750111 3 2 ack 40 ------- 1 4.0 0.0 10 38
r 5.750127 4 3 ack 40 ------- 1 4.0 0.0 11 39
+ 5.750127 3 2 ack 40 ------- 1 4.0 0.0 11 39
- 5.750127 3 2 ack 40 ------- 1 4.0 0.0 11 39
r 5.750144 4 3 ack 40 ------- 1 4.0 0.0 12 40
+ 5.750144 3 2 ack 40 ------- 1 4.0 0.0 12 40
- 5.750144 3 2 ack 40 ------- 1 4.0 0.0 12 40
r 5.750161 4 3 ack 40 ------- 1 4.0 0.0 13 41
+ 5.750161 3 2 ack 40 ------- 1 4.0 0.0 13 41
- 5.750161 3 2 ack 40 ------- 1 4.0 0.0 13 41
r 5.800023 3 2 ack 40 ------- 2 5.0 1.0 1 30
+ 5.800023 2 1 ack 40 ------- 2 5.0 1.0 1 30
- 5.800023 2 1 ack 40 ------- 2 5.0 1.0 1 30
r 5.80004 3 2 ack 40 ------- 2 5.0 1.0 2 31
+ 5.80004 2 1 ack 40 ------- 2 5.0 1.0 2 31
- 5.80004 2 1 ack 40 ------- 2 5.0 1.0 2 31
r 5.800045 3 2 ack 40 ------- 1 4.0 0.0 6 34
+ 5.800045 2 0 ack 40 ------- 1 4.0 0.0 6 34
- 5.800045 2 0 ack 40 ------- 1 4.0 0.0 6 34
r 5.800056 3 2 ack 40 ------- 2 5.0 1.0 3 32
+ 5.800056 2 1 ack 40 ------- 2 5.0 1.0 3 32
- 5.800056 2 1 ack 40 ------- 2 5.0 1.0 3 32
r 5.800061 3 2 ack 40 ------- 1 4.0 0.0 7 35
+ 5.800061 2 0 ack 40 ------- 1 4.0 0.0 7 35
- 5.800061 2 0 ack 40 ------- 1 4.0 0.0 7 35
r 5.800073 3 2 ack 40 ------- 2 5.0 1.0 4 33
+ 5.800073 2 1 ack 40 ------- 2 5.0 1.0 4 33
- 5.800073 2 1 ack 40 ------- 2 5.0 1.0 4 33
r 5.800078 3 2 ack 40 ------- 1 4.0 0.0 8 36
+ 5.800078 2 0 ack 40 ------- 1 4.0 0.0 8 36
- 5.800078 2 0 ack 40 ------- 1 4.0 0.0 8 36
r 5.800095 3 2 ack 40 ------- 1 4.0 0.0 9 37
+ 5.800095 2 0 ack 40 ------- 1 4.0 0.0 9 37
- 5.800095 2 0 ack 40 ------- 1 4.0 0.0 9 37
r 5.800111 3 2 ack 40 ------- 1 4.0 0.0 10 38
+ 5.800111 2 0 ack 40 ------- 1 4.0 0.0 10 38
- 5.800111 2 0 ack 40 ------- 1 4.0 0.0 10 38
r 5.800128 3 2 ack 40 ------- 1 4.0 0.0 11 39
+ 5.800128 2 0 ack 40 ------- 1 4.0 0.0 11 39
- 5.800128 2 0 ack 40 ------- 1 4.0 0.0 11 39
r 5.800145 3 2 ack 40 ------- 1 4.0 0.0 12 40
+ 5.800145 2 0 ack 40 ------- 1 4.0 0.0 12 40
- 5.800145 2 0 ack 40 ------- 1 4.0 0.0 12 40
r 5.800161 3 2 ack 40 ------- 1 4.0 0.0 13 41
+ 5.800161 2 0 ack 40 ------- 1 4.0 0.0 13 41
- 5.800161 2 0 ack 40 ------- 1 4.0 0.0 13 41
r 6.300002 2 1 ack 40 ------- 2 5.0 1.0 1 29
r 6.300045 2 0 ack 40 ------- 1 4.0 0.0 6 34
6.30004  0  0  4  0  ack_ 6
6.30004  0  0  4  0  cwnd_ 9.000 
+ 6.300045 0 2 tcp 1040 ------- 1 0.0 4.0 14 42
- 6.300045 0 2 tcp 1040 ------- 1 0.0 4.0 14 42
6.30004  0  0  4  0  maxseq_ 14
+ 6.300045 0 2 tcp 1040 ------- 1 0.0 4.0 15 43
6.30004  0  0  4  0  maxseq_ 15
- 6.300047 0 2 tcp 1040 ------- 1 0.0 4.0 15 43
r 6.300061 2 0 ack 40 ------- 1 4.0 0.0 7 35
6.30006  0  0  4  0  ack_ 7
6.30006  0  0  4  0  cwnd_ 10.000
+ 6.300061 0 2 tcp 1040 ------- 1 0.0 4.0 16 44
- 6.300061 0 2 tcp 1040 ------- 1 0.0 4.0 16 44
6.30006  0  0  4  0  maxseq_ 16
+ 6.300061 0 2 tcp 1040 ------- 1 0.0 4.0 17 45
6.30006  0  0  4  0  maxseq_ 17
- 6.300064 0 2 tcp 1040 ------- 1 0.0 4.0 17 45
r 6.300078 2 0 ack 40 ------- 1 4.0 0.0 8 36
6.30008  0  0  4  0  ack_ 8
6.30008  0  0  4  0  cwnd_ 11.000
+ 6.300078 0 2 tcp 1040 ------- 1 0.0 4.0 18 46
- 6.300078 0 2 tcp 1040 ------- 1 0.0 4.0 18 46
6.30008  0  0  4  0  maxseq_ 18
+ 6.300078 0 2 tcp 1040 ------- 1 0.0 4.0 19 47
6.30008  0  0  4  0  maxseq_ 19
- 6.30008 0 2 tcp 1040 ------- 1 0.0 4.0 19 47
r 6.300095 2 0 ack 40 ------- 1 4.0 0.0 9 37
6.30009  0  0  4  0  ack_ 9
6.30009  0  0  4  0  cwnd_ 12.000
+ 6.300095 0 2 tcp 1040 ------- 1 0.0 4.0 20 48
- 6.300095 0 2 tcp 1040 ------- 1 0.0 4.0 20 48
6.30009  0  0  4  0  maxseq_ 20
+ 6.300095 0 2 tcp 1040 ------- 1 0.0 4.0 21 49
6.30009  0  0  4  0  maxseq_ 21
- 6.300097 0 2 tcp 1040 ------- 1 0.0 4.0 21 49
r 6.300111 2 0 ack 40 ------- 1 4.0 0.0 10 38
6.30011  0  0  4  0  ack_ 10
6.30011  0  0  4  0  cwnd_ 13.000
+ 6.300111 0 2 tcp 1040 ------- 1 0.0 4.0 22 50
- 6.300111 0 2 tcp 1040 ------- 1 0.0 4.0 22 50
6.30011  0  0  4  0  maxseq_ 22
+ 6.300111 0 2 tcp 1040 ------- 1 0.0 4.0 23 51
6.30011  0  0  4  0  maxseq_ 23
- 6.300113 0 2 tcp 1040 ------- 1 0.0 4.0 23 51
r 6.300128 2 0 ack 40 ------- 1 4.0 0.0 11 39
6.30013  0  0  4  0  ack_ 11
6.30013  0  0  4  0  cwnd_ 14.000
+ 6.300128 0 2 tcp 1040 ------- 1 0.0 4.0 24 52
- 6.300128 0 2 tcp 1040 ------- 1 0.0 4.0 24 52
6.30013  0  0  4  0  maxseq_ 24
+ 6.300128 0 2 tcp 1040 ------- 1 0.0 4.0 25 53
6.30013  0  0  4  0  maxseq_ 25
- 6.30013 0 2 tcp 1040 ------- 1 0.0 4.0 25 53
r 6.300145 2 0 ack 40 ------- 1 4.0 0.0 12 40
6.30014  0  0  4  0  ack_ 12
6.30014  0  0  4  0  cwnd_ 15.000
+ 6.300145 0 2 tcp 1040 ------- 1 0.0 4.0 26 54
- 6.300145 0 2 tcp 1040 ------- 1 0.0 4.0 26 54
6.30014  0  0  4  0  maxseq_ 26
+ 6.300145 0 2 tcp 1040 ------- 1 0.0 4.0 27 55
6.30014  0  0  4  0  maxseq_ 27
- 6.300147 0 2 tcp 1040 ------- 1 0.0 4.0 27 55
r 6.300161 2 0 ack 40 ------- 1 4.0 0.0 13 41
6.30016  0  0  4  0  ack_ 13
6.30016  0  0  4  0  cwnd_ 16.000
+ 6.300161 0 2 tcp 1040 ------- 1 0.0 4.0 28 56
- 6.300161 0 2 tcp 1040 ------- 1 0.0 4.0 28 56
6.30016  0  0  4  0  maxseq_ 28
+ 6.300161 0 2 tcp 1040 ------- 1 0.0 4.0 29 57
6.30016  0  0  4  0  maxseq_ 29
- 6.300163 0 2 tcp 1040 ------- 1 0.0 4.0 29 57
r 6.600023 2 1 ack 40 ------- 2 5.0 1.0 1 30
r 6.60004 2 1 ack 40 ------- 2 5.0 1.0 2 31
6.60004  1  0  5  0  ack_ 2
6.60004  1  0  5  0  rtt_ 3.300 
+ 6.60004 1 2 tcp 1040 ------- 2 1.0 5.0 5 58
- 6.60004 1 2 tcp 1040 ------- 2 1.0 5.0 5 58
6.60004  1  0  5  0  maxseq_ 5
r 6.600056 2 1 ack 40 ------- 2 5.0 1.0 3 32
6.60006  1  0  5  0  ack_ 3
+ 6.600056 1 2 tcp 1040 ------- 2 1.0 5.0 6 59
- 6.600056 1 2 tcp 1040 ------- 2 1.0 5.0 6 59
6.60006  1  0  5  0  maxseq_ 6
r 6.600073 2 1 ack 40 ------- 2 5.0 1.0 4 33
6.60007  1  0  5  0  ack_ 4
+ 6.600073 1 2 tcp 1040 ------- 2 1.0 5.0 7 60
- 6.600073 1 2 tcp 1040 ------- 2 1.0 5.0 7 60
6.60007  1  0  5  0  maxseq_ 7
r 6.800047 0 2 tcp 1040 ------- 1 0.0 4.0 14 42
+ 6.800047 2 3 tcp 1040 ------- 1 0.0 4.0 14 42
- 6.800047 2 3 tcp 1040 ------- 1 0.0 4.0 14 42
r 6.800049 0 2 tcp 1040 ------- 1 0.0 4.0 15 43
+ 6.800049 2 3 tcp 1040 ------- 1 0.0 4.0 15 43
r 6.800064 0 2 tcp 1040 ------- 1 0.0 4.0 16 44
+ 6.800064 2 3 tcp 1040 ------- 1 0.0 4.0 16 44
- 6.800064 2 3 tcp 1040 ------- 1 0.0 4.0 15 43
r 6.800066 0 2 tcp 1040 ------- 1 0.0 4.0 17 45
+ 6.800066 2 3 tcp 1040 ------- 1 0.0 4.0 17 45
r 6.80008 0 2 tcp 1040 ------- 1 0.0 4.0 18 46
+ 6.80008 2 3 tcp 1040 ------- 1 0.0 4.0 18 46
- 6.80008 2 3 tcp 1040 ------- 1 0.0 4.0 16 44
r 6.800082 0 2 tcp 1040 ------- 1 0.0 4.0 19 47
+ 6.800082 2 3 tcp 1040 ------- 1 0.0 4.0 19 47
r 6.800097 0 2 tcp 1040 ------- 1 0.0 4.0 20 48
+ 6.800097 2 3 tcp 1040 ------- 1 0.0 4.0 20 48
- 6.800097 2 3 tcp 1040 ------- 1 0.0 4.0 17 45
r 6.800099 0 2 tcp 1040 ------- 1 0.0 4.0 21 49
+ 6.800099 2 3 tcp 1040 ------- 1 0.0 4.0 21 49
r 6.800113 0 2 tcp 1040 ------- 1 0.0 4.0 22 50
+ 6.800113 2 3 tcp 1040 ------- 1 0.0 4.0 22 50
- 6.800113 2 3 tcp 1040 ------- 1 0.0 4.0 18 46
r 6.800116 0 2 tcp 1040 ------- 1 0.0 4.0 23 51
+ 6.800116 2 3 tcp 1040 ------- 1 0.0 4.0 23 51
r 6.80013 0 2 tcp 1040 ------- 1 0.0 4.0 24 52
+ 6.80013 2 3 tcp 1040 ------- 1 0.0 4.0 24 52
d 6.80013 2 3 tcp 1040 ------- 1 0.0 4.0 24 52
- 6.80013 2 3 tcp 1040 ------- 1 0.0 4.0 19 47
r 6.800132 0 2 tcp 1040 ------- 1 0.0 4.0 25 53
+ 6.800132 2 3 tcp 1040 ------- 1 0.0 4.0 25 53
r 6.800147 0 2 tcp 1040 ------- 1 0.0 4.0 26 54
+ 6.800147 2 3 tcp 1040 ------- 1 0.0 4.0 26 54
d 6.800147 2 3 tcp 1040 ------- 1 0.0 4.0 26 54
- 6.800147 2 3 tcp 1040 ------- 1 0.0 4.0 20 48
r 6.800149 0 2 tcp 1040 ------- 1 0.0 4.0 27 55
+ 6.800149 2 3 tcp 1040 ------- 1 0.0 4.0 27 55
r 6.800163 0 2 tcp 1040 ------- 1 0.0 4.0 28 56
+ 6.800163 2 3 tcp 1040 ------- 1 0.0 4.0 28 56
d 6.800163 2 3 tcp 1040 ------- 1 0.0 4.0 28 56
- 6.800163 2 3 tcp 1040 ------- 1 0.0 4.0 21 49
r 6.800165 0 2 tcp 1040 ------- 1 0.0 4.0 29 57
+ 6.800165 2 3 tcp 1040 ------- 1 0.0 4.0 29 57
- 6.80018 2 3 tcp 1040 ------- 1 0.0 4.0 22 50
- 6.800197 2 3 tcp 1040 ------- 1 0.0 4.0 23 51
- 6.800213 2 3 tcp 1040 ------- 1 0.0 4.0 25 53
- 6.80023 2 3 tcp 1040 ------- 1 0.0 4.0 27 55
- 6.800247 2 3 tcp 1040 ------- 1 0.0 4.0 29 57
r 6.850064 2 3 tcp 1040 ------- 1 0.0 4.0 14 42
+ 6.850064 3 4 tcp 1040 ------- 1 0.0 4.0 14 42
- 6.850064 3 4 tcp 1040 ------- 1 0.0 4.0 14 42
r 6.85008 2 3 tcp 1040 ------- 1 0.0 4.0 15 43
+ 6.85008 3 4 tcp 1040 ------- 1 0.0 4.0 15 43
- 6.85008 3 4 tcp 1040 ------- 1 0.0 4.0 15 43
r 6.850097 2 3 tcp 1040 ------- 1 0.0 4.0 16 44
+ 6.850097 3 4 tcp 1040 ------- 1 0.0 4.0 16 44
- 6.850097 3 4 tcp 1040 ------- 1 0.0 4.0 16 44
r 6.850113 2 3 tcp 1040 ------- 1 0.0 4.0 17 45
+ 6.850113 3 4 tcp 1040 ------- 1 0.0 4.0 17 45
- 6.850113 3 4 tcp 1040 ------- 1 0.0 4.0 17 45
r 6.85013 2 3 tcp 1040 ------- 1 0.0 4.0 18 46
+ 6.85013 3 4 tcp 1040 ------- 1 0.0 4.0 18 46
- 6.85013 3 4 tcp 1040 ------- 1 0.0 4.0 18 46
r 6.850147 2 3 tcp 1040 ------- 1 0.0 4.0 19 47
+ 6.850147 3 4 tcp 1040 ------- 1 0.0 4.0 19 47
- 6.850147 3 4 tcp 1040 ------- 1 0.0 4.0 19 47
r 6.850163 2 3 tcp 1040 ------- 1 0.0 4.0 20 48
+ 6.850163 3 4 tcp 1040 ------- 1 0.0 4.0 20 48
- 6.850163 3 4 tcp 1040 ------- 1 0.0 4.0 20 48
r 6.85018 2 3 tcp 1040 ------- 1 0.0 4.0 21 49
+ 6.85018 3 4 tcp 1040 ------- 1 0.0 4.0 21 49
- 6.85018 3 4 tcp 1040 ------- 1 0.0 4.0 21 49
r 6.850197 2 3 tcp 1040 ------- 1 0.0 4.0 22 50
+ 6.850197 3 4 tcp 1040 ------- 1 0.0 4.0 22 50
- 6.850197 3 4 tcp 1040 ------- 1 0.0 4.0 22 50
r 6.850213 2 3 tcp 1040 ------- 1 0.0 4.0 23 51
+ 6.850213 3 4 tcp 1040 ------- 1 0.0 4.0 23 51
- 6.850213 3 4 tcp 1040 ------- 1 0.0 4.0 23 51
r 6.85023 2 3 tcp 1040 ------- 1 0.0 4.0 25 53
+ 6.85023 3 4 tcp 1040 ------- 1 0.0 4.0 25 53
- 6.85023 3 4 tcp 1040 ------- 1 0.0 4.0 25 53
r 6.850247 2 3 tcp 1040 ------- 1 0.0 4.0 27 55
+ 6.850247 3 4 tcp 1040 ------- 1 0.0 4.0 27 55
- 6.850247 3 4 tcp 1040 ------- 1 0.0 4.0 27 55
r 6.850263 2 3 tcp 1040 ------- 1 0.0 4.0 29 57
+ 6.850263 3 4 tcp 1040 ------- 1 0.0 4.0 29 57
- 6.850263 3 4 tcp 1040 ------- 1 0.0 4.0 29 57
r 7.350066 3 4 tcp 1040 ------- 1 0.0 4.0 14 42
+ 7.350066 4 3 ack 40 ------- 1 4.0 0.0 14 61
- 7.350066 4 3 ack 40 ------- 1 4.0 0.0 14 61
r 7.350082 3 4 tcp 1040 ------- 1 0.0 4.0 15 43
+ 7.350082 4 3 ack 40 ------- 1 4.0 0.0 15 62
- 7.350082 4 3 ack 40 ------- 1 4.0 0.0 15 62
r 7.350099 3 4 tcp 1040 ------- 1 0.0 4.0 16 44
+ 7.350099 4 3 ack 40 ------- 1 4.0 0.0 16 63
- 7.350099 4 3 ack 40 ------- 1 4.0 0.0 16 63
r 7.350116 3 4 tcp 1040 ------- 1 0.0 4.0 17 45
+ 7.350116 4 3 ack 40 ------- 1 4.0 0.0 17 64
- 7.350116 4 3 ack 40 ------- 1 4.0 0.0 17 64
r 7.350132 3 4 tcp 1040 ------- 1 0.0 4.0 18 46
+ 7.350132 4 3 ack 40 ------- 1 4.0 0.0 18 65
- 7.350132 4 3 ack 40 ------- 1 4.0 0.0 18 65
r 7.350149 3 4 tcp 1040 ------- 1 0.0 4.0 19 47
+ 7.350149 4 3 ack 40 ------- 1 4.0 0.0 19 66
- 7.350149 4 3 ack 40 ------- 1 4.0 0.0 19 66
r 7.350165 3 4 tcp 1040 ------- 1 0.0 4.0 20 48
+ 7.350165 4 3 ack 40 ------- 1 4.0 0.0 20 67
- 7.350165 4 3 ack 40 ------- 1 4.0 0.0 20 67
r 7.350182 3 4 tcp 1040 ------- 1 0.0 4.0 21 49
+ 7.350182 4 3 ack 40 ------- 1 4.0 0.0 21 68
- 7.350182 4 3 ack 40 ------- 1 4.0 0.0 21 68
r 7.350199 3 4 tcp 1040 ------- 1 0.0 4.0 22 50
+ 7.350199 4 3 ack 40 ------- 1 4.0 0.0 22 69
- 7.350199 4 3 ack 40 ------- 1 4.0 0.0 22 69
r 7.350215 3 4 tcp 1040 ------- 1 0.0 4.0 23 51
+ 7.350215 4 3 ack 40 ------- 1 4.0 0.0 23 70
- 7.350215 4 3 ack 40 ------- 1 4.0 0.0 23 70
r 7.350232 3 4 tcp 1040 ------- 1 0.0 4.0 25 53
+ 7.350232 4 3 ack 48 ------- 1 4.0 0.0 23 71
- 7.350232 4 3 ack 48 ------- 1 4.0 0.0 23 71
r 7.350249 3 4 tcp 1040 ------- 1 0.0 4.0 27 55
+ 7.350249 4 3 ack 56 ------- 1 4.0 0.0 23 72
- 7.350249 4 3 ack 56 ------- 1 4.0 0.0 23 72
r 7.350265 3 4 tcp 1040 ------- 1 0.0 4.0 29 57
+ 7.350265 4 3 ack 64 ------- 1 4.0 0.0 23 73
- 7.350265 4 3 ack 64 ------- 1 4.0 0.0 23 73
r 7.400042 1 2 tcp 1040 ------- 2 1.0 5.0 5 58
+ 7.400042 2 3 tcp 1040 ------- 2 1.0 5.0 5 58
- 7.400042 2 3 tcp 1040 ------- 2 1.0 5.0 5 58
r 7.400059 1 2 tcp 1040 ------- 2 1.0 5.0 6 59
+ 7.400059 2 3 tcp 1040 ------- 2 1.0 5.0 6 59
- 7.400059 2 3 tcp 1040 ------- 2 1.0 5.0 6 59
r 7.400075 1 2 tcp 1040 ------- 2 1.0 5.0 7 60
+ 7.400075 2 3 tcp 1040 ------- 2 1.0 5.0 7 60
- 7.400075 2 3 tcp 1040 ------- 2 1.0 5.0 7 60
r 7.450059 2 3 tcp 1040 ------- 2 1.0 5.0 5 58
+ 7.450059 3 5 tcp 1040 ------- 2 1.0 5.0 5 58
- 7.450059 3 5 tcp 1040 ------- 2 1.0 5.0 5 58
r 7.450075 2 3 tcp 1040 ------- 2 1.0 5.0 6 59
+ 7.450075 3 5 tcp 1040 ------- 2 1.0 5.0 6 59
- 7.450075 3 5 tcp 1040 ------- 2 1.0 5.0 6 59
r 7.450092 2 3 tcp 1040 ------- 2 1.0 5.0 7 60
+ 7.450092 3 5 tcp 1040 ------- 2 1.0 5.0 7 60
- 7.450092 3 5 tcp 1040 ------- 2 1.0 5.0 7 60
r 7.850066 4 3 ack 40 ------- 1 4.0 0.0 14 61
+ 7.850066 3 2 ack 40 ------- 1 4.0 0.0 14 61
- 7.850066 3 2 ack 40 ------- 1 4.0 0.0 14 61
r 7.850082 4 3 ack 40 ------- 1 4.0 0.0 15 62
+ 7.850082 3 2 ack 40 ------- 1 4.0 0.0 15 62
- 7.850082 3 2 ack 40 ------- 1 4.0 0.0 15 62
r 7.850099 4 3 ack 40 ------- 1 4.0 0.0 16 63
+ 7.850099 3 2 ack 40 ------- 1 4.0 0.0 16 63
- 7.850099 3 2 ack 40 ------- 1 4.0 0.0 16 63
r 7.850116 4 3 ack 40 ------- 1 4.0 0.0 17 64
+ 7.850116 3 2 ack 40 ------- 1 4.0 0.0 17 64
- 7.850116 3 2 ack 40 ------- 1 4.0 0.0 17 64
r 7.850132 4 3 ack 40 ------- 1 4.0 0.0 18 65
+ 7.850132 3 2 ack 40 ------- 1 4.0 0.0 18 65
- 7.850132 3 2 ack 40 ------- 1 4.0 0.0 18 65
r 7.850149 4 3 ack 40 ------- 1 4.0 0.0 19 66
+ 7.850149 3 2 ack 40 ------- 1 4.0 0.0 19 66
- 7.850149 3 2 ack 40 ------- 1 4.0 0.0 19 66
r 7.850166 4 3 ack 40 ------- 1 4.0 0.0 20 67
+ 7.850166 3 2 ack 40 ------- 1 4.0 0.0 20 67
- 7.850166 3 2 ack 40 ------- 1 4.0 0.0 20 67
r 7.850182 4 3 ack 40 ------- 1 4.0 0.0 21 68
+ 7.850182 3 2 ack 40 ------- 1 4.0 0.0 21 68
- 7.850182 3 2 ack 40 ------- 1 4.0 0.0 21 68
r 7.850199 4 3 ack 40 ------- 1 4.0 0.0 22 69
+ 7.850199 3 2 ack 40 ------- 1 4.0 0.0 22 69
- 7.850199 3 2 ack 40 ------- 1 4.0 0.0 22 69
r 7.850215 4 3 ack 40 ------- 1 4.0 0.0 23 70
+ 7.850215 3 2 ack 40 ------- 1 4.0 0.0 23 70
- 7.850215 3 2 ack 40 ------- 1 4.0 0.0 23 70