0.00000  0  0  4  0  cwnd_ 1.000 
0.00000  0  0  4  0  ssthresh_ 20
0.00000  0  0  4  0  ack_ -1
0.00000  0  0  4  0  maxseq_ -1
0.00000  0  0  4  0  rtt_ 0.000 
0.00000  1  0  5  0  cwnd_ 1.000 
0.00000  1  0  5  0  ssthresh_ 20
0.00000  1  0  5  0  ack_ -1
0.00000  1  0  5  0  maxseq_ -1
0.00000  1  0  5  0  rtt_ 0.000 
0.00000  0  0  4  0  ssthresh_ 1000
0.00000  1  0  5  0  ssthresh_ 1000
+ 0 1 2 tcp 1000 ------- 2 1.0 5.0 0 0
- 0 1 2 tcp 1000 ------- 2 1.0 5.0 0 0
0.00000  1  0  5  0  maxseq_ 0
+ 0 0 2 tcp 1000 ------- 1 0.0 4.0 0 1
- 0 0 2 tcp 1000 ------- 1 0.0 4.0 0 1
0.00000  0  0  4  0  maxseq_ 0
r 0.500002 0 2 tcp 1000 ------- 1 0.0 4.0 0 1
+ 0.500002 2 3 tcp 1000 ------- 1 0.0 4.0 0 1
- 0.500002 2 3 tcp 1000 ------- 1 0.0 4.0 0 1
r 0.55001 2 3 tcp 1000 ------- 1 0.0 4.0 0 1
+ 0.55001 3 4 tcp 1000 ------- 1 0.0 4.0 0 1
- 0.55001 3 4 tcp 1000 ------- 1 0.0 4.0 0 1
r 0.800002 1 2 tcp 1000 ------- 2 1.0 5.0 0 0
+ 0.800002 2 3 tcp 1000 ------- 2 1.0 5.0 0 0
- 0.800002 2 3 tcp 1000 ------- 2 1.0 5.0 0 0
r 0.85001 2 3 tcp 1000 ------- 2 1.0 5.0 0 0
+ 0.85001 3 5 tcp 1000 ------- 2 1.0 5.0 0 0
- 0.85001 3 5 tcp 1000 ------- 2 1.0 5.0 0 0
r 1.050012 3 4 tcp 1000 ------- 1 0.0 4.0 0 1
+ 1.050012 4 3 ack 40 ------- 1 4.0 0.0 0 2
- 1.050012 4 3 ack 40 ------- 1 4.0 0.0 0 2
r 1.550012 4 3 ack 40 ------- 1 4.0 0.0 0 2
+ 1.550012 3 2 ack 40 ------- 1 4.0 0.0 0 2
- 1.550012 3 2 ack 40 ------- 1 4.0 0.0 0 2
r 1.600012 3 2 ack 40 ------- 1 4.0 0.0 0 2
+ 1.600012 2 0 ack 40 ------- 1 4.0 0.0 0 2
- 1.600012 2 0 ack 40 ------- 1 4.0 0.0 0 2
r 1.650012 3 5 tcp 1000 ------- 2 1.0 5.0 0 0
+ 1.650012 5 3 ack 40 ------- 2 5.0 1.0 0 3
- 1.650012 5 3 ack 40 ------- 2 5.0 1.0 0 3
r 2.100012 2 0 ack 40 ------- 1 4.0 0.0 0 2
2.10001  0  0  4  0  ack_ 0
2.10001  0  0  4  0  rtt_ 2.100 
+ 2.100012 0 2 tcp 1000 ------- 1 0.0 4.0 1 4
- 2.100012 0 2 tcp 1000 ------- 1 0.0 4.0 1 4
2.10001  0  0  4  0  maxseq_ 1
r 2.450012 5 3 ack 40 ------- 2 5.0 1.0 0 3
+ 2.450012 3 2 ack 40 ------- 2 5.0 1.0 0 3
- 2.450012 3 2 ack 40 ------- 2 5.0 1.0 0 3
r 2.500012 3 2 ack 40 ------- 2 5.0 1.0 0 3
+ 2.500012 2 1 ack 40 ------- 2 5.0 1.0 0 3
- 2.500012 2 1 ack 40 ------- 2 5.0 1.0 0 3
r 2.600014 0 2 tcp 1000 ------- 1 0.0 4.0 1 4
+ 2.600014 2 3 tcp 1000 ------- 1 0.0 4.0 1 4
- 2.600014 2 3 tcp 1000 ------- 1 0.0 4.0 1 4
r 2.650022 2 3 tcp 1000 ------- 1 0.0 4.0 1 4
+ 2.650022 3 4 tcp 1000 ------- 1 0.0 4.0 1 4
- 2.650022 3 4 tcp 1000 ------- 1 0.0 4.0 1 4
3.00000  1  0  5  0  ssthresh_ 0
3.00000  1  0  5  0  ssthresh_ 2
3.00000  1  0  5  0  cwnd_ 2.000 
+ 3 1 2 tcp 1000 ------- 2 1.0 5.0 0 5
- 3 1 2 tcp 1000 ------- 2 1.0 5.0 0 5
+ 3 1 2 tcp 1000 ------- 2 1.0 5.0 1 6
3.00000  1  0  5  0  maxseq_ 1
- 3.000002 1 2 tcp 1000 ------- 2 1.0 5.0 1 6
r 3.150024 3 4 tcp 1000 ------- 1 0.0 4.0 1 4
+ 3.150024 4 3 ack 40 ------- 1 4.0 0.0 1 7
- 3.150024 4 3 ack 40 ------- 1 4.0 0.0 1 7
r 3.300012 2 1 ack 40 ------- 2 5.0 1.0 0 3
3.30001  1  0  5  0  ack_ 0
3.30001  1  0  5  0  cwnd_ 2.500 
+ 3.300012 1 2 tcp 1000 ------- 2 1.0 5.0 2 8
- 3.300012 1 2 tcp 1000 ------- 2 1.0 5.0 2 8
3.30001  1  0  5  0  maxseq_ 2
r 3.650025 4 3 ack 40 ------- 1 4.0 0.0 1 7
+ 3.650025 3 2 ack 40 ------- 1 4.0 0.0 1 7
- 3.650025 3 2 ack 40 ------- 1 4.0 0.0 1 7
r 3.700025 3 2 ack 40 ------- 1 4.0 0.0 1 7
+ 3.700025 2 0 ack 40 ------- 1 4.0 0.0 1 7
- 3.700025 2 0 ack 40 ------- 1 4.0 0.0 1 7
r 3.800002 1 2 tcp 1000 ------- 2 1.0 5.0 0 5
+ 3.800002 2 3 tcp 1000 ------- 2 1.0 5.0 0 5
- 3.800002 2 3 tcp 1000 ------- 2 1.0 5.0 0 5
r 3.800004 1 2 tcp 1000 ------- 2 1.0 5.0 1 6
+ 3.800004 2 3 tcp 1000 ------- 2 1.0 5.0 1 6
- 3.80001 2 3 tcp 1000 ------- 2 1.0 5.0 1 6
r 3.85001 2 3 tcp 1000 ------- 2 1.0 5.0 0 5
+ 3.85001 3 5 tcp 1000 ------- 2 1.0 5.0 0 5
- 3.85001 3 5 tcp 1000 ------- 2 1.0 5.0 0 5
r 3.850018 2 3 tcp 1000 ------- 2 1.0 5.0 1 6
+ 3.850018 3 5 tcp 1000 ------- 2 1.0 5.0 1 6
- 3.850018 3 5 tcp 1000 ------- 2 1.0 5.0 1 6
r 4.100014 1 2 tcp 1000 ------- 2 1.0 5.0 2 8
+ 4.100014 2 3 tcp 1000 ------- 2 1.0 5.0 2 8
- 4.100014 2 3 tcp 1000 ------- 2 1.0 5.0 2 8
r 4.150022 2 3 tcp 1000 ------- 2 1.0 5.0 2 8
+ 4.150022 3 5 tcp 1000 ------- 2 1.0 5.0 2 8
- 4.150022 3 5 tcp 1000 ------- 2 1.0 5.0 2 8
r 4.200025 2 0 ack 40 ------- 1 4.0 0.0 1 7
4.20002  0  0  4  0  cwnd_ 2.000 
4.20002  0  0  4  0  ack_ 1
4.20002  0  0  4  0  cwnd_ 3.000 
+ 4.200025 0 2 tcp 1000 ------- 1 0.0 4.0 2 9
- 4.200025 0 2 tcp 1000 ------- 1 0.0 4.0 2 9
4.20002  0  0  4  0  maxseq_ 2
+ 4.200025 0 2 tcp 1000 ------- 1 0.0 4.0 3 10
4.20002  0  0  4  0  maxseq_ 3
+ 4.200025 0 2 tcp 1000 ------- 1 0.0 4.0 4 11
4.20002  0  0  4  0  maxseq_ 4
- 4.200027 0 2 tcp 1000 ------- 1 0.0 4.0 3 10
- 4.200029 0 2 tcp 1000 ------- 1 0.0 4.0 4 11
r 4.650012 3 5 tcp 1000 ------- 2 1.0 5.0 0 5
+ 4.650012 5 3 ack 40 ------- 2 5.0 1.0 0 12
- 4.650012 5 3 ack 40 ------- 2 5.0 1.0 0 12
r 4.65002 3 5 tcp 1000 ------- 2 1.0 5.0 1 6
+ 4.65002 5 3 ack 40 ------- 2 5.0 1.0 1 13
- 4.65002 5 3 ack 40 ------- 2 5.0 1.0 1 13
r 4.700027 0 2 tcp 1000 ------- 1 0.0 4.0 2 9
+ 4.700027 2 3 tcp 1000 ------- 1 0.0 4.0 2 9
- 4.700027 2 3 tcp 1000 ------- 1 0.0 4.0 2 9
r 4.700029 0 2 tcp 1000 ------- 1 0.0 4.0 3 10
+ 4.700029 2 3 tcp 1000 ------- 1 0.0 4.0 3 10
r 4.700031 0 2 tcp 1000 ------- 1 0.0 4.0 4 11
+ 4.700031 2 3 tcp 1000 ------- 1 0.0 4.0 4 11
- 4.700035 2 3 tcp 1000 ------- 1 0.0 4.0 3 10
- 4.700043 2 3 tcp 1000 ------- 1 0.0 4.0 4 11
r 4.750035 2 3 tcp 1000 ------- 1 0.0 4.0 2 9
+ 4.750035 3 4 tcp 1000 ------- 1 0.0 4.0 2 9
- 4.750035 3 4 tcp 1000 ------- 1 0.0 4.0 2 9
r 4.750043 2 3 tcp 1000 ------- 1 0.0 4.0 3 10
+ 4.750043 3 4 tcp 1000 ------- 1 0.0 4.0 3 10
- 4.750043 3 4 tcp 1000 ------- 1 0.0 4.0 3 10
r 4.750051 2 3 tcp 1000 ------- 1 0.0 4.0 4 11
+ 4.750051 3 4 tcp 1000 ------- 1 0.0 4.0 4 11
- 4.750051 3 4 tcp 1000 ------- 1 0.0 4.0 4 11
r 4.950024 3 5 tcp 1000 ------- 2 1.0 5.0 2 8
+ 4.950024 5 3 ack 40 ------- 2 5.0 1.0 2 14
- 4.950024 5 3 ack 40 ------- 2 5.0 1.0 2 14
r 5.250037 3 4 tcp 1000 ------- 1 0.0 4.0 2 9
+ 5.250037 4 3 ack 40 ------- 1 4.0 0.0 2 15
- 5.250037 4 3 ack 40 ------- 1 4.0 0.0 2 15
r 5.250045 3 4 tcp 1000 ------- 1 0.0 4.0 3 10
+ 5.250045 4 3 ack 40 ------- 1 4.0 0.0 3 16
- 5.250045 4 3 ack 40 ------- 1 4.0 0.0 3 16
r 5.250053 3 4 tcp 1000 ------- 1 0.0 4.0 4 11
+ 5.250053 4 3 ack 40 ------- 1 4.0 0.0 4 17
- 5.250053 4 3 ack 40 ------- 1 4.0 0.0 4 17
r 5.450012 5 3 ack 40 ------- 2 5.0 1.0 0 12
+ 5.450012 3 2 ack 40 ------- 2 5.0 1.0 0 12
- 5.450012 3 2 ack 40 ------- 2 5.0 1.0 0 12
r 5.45002 5 3 ack 40 ------- 2 5.0 1.0 1 13
+ 5.45002 3 2 ack 40 ------- 2 5.0 1.0 1 13
- 5.45002 3 2 ack 40 ------- 2 5.0 1.0 1 13
r 5.500012 3 2 ack 40 ------- 2 5.0 1.0 0 12
+ 5.500012 2 1 ack 40 ------- 2 5.0 1.0 0 12
- 5.500012 2 1 ack 40 ------- 2 5.0 1.0 0 12
r 5.50002 3 2 ack 40 ------- 2 5.0 1.0 1 13
+ 5.50002 2 1 ack 40 ------- 2 5.0 1.0 1 13
- 5.50002 2 1 ack 40 ------- 2 5.0 1.0 1 13
r 5.750025 5 3 ack 40 ------- 2 5.0 1.0 2 14
+ 5.750025 3 2 ack 40 ------- 2 5.0 1.0 2 14
- 5.750025 3 2 ack 40 ------- 2 5.0 1.0 2 14
r 5.750037 4 3 ack 40 ------- 1 4.0 0.0 2 15
+ 5.750037 3 2 ack 40 ------- 1 4.0 0.0 2 15
- 5.750037 3 2 ack 40 ------- 1 4.0 0.0 2 15
r 5.750045 4 3 ack 40 ------- 1 4.0 0.0 3 16
+ 5.750045 3 2 ack 40 ------- 1 4.0 0.0 3 16
- 5.750045 3 2 ack 40 ------- 1 4.0 0.0 3 16
r 5.750053 4 3 ack 40 ------- 1 4.0 0.0 4 17
+ 5.750053 3 2 ack 40 ------- 1 4.0 0.0 4 17
- 5.750053 3 2 ack 40 ------- 1 4.0 0.0 4 17
r 5.800025 3 2 ack 40 ------- 2 5.0 1.0 2 14
+ 5.800025 2 1 ack 40 ------- 2 5.0 1.0 2 14
- 5.800025 2 1 ack 40 ------- 2 5.0 1.0 2 14
r 5.800037 3 2 ack 40 ------- 1 4.0 0.0 2 15
+ 5.800037 2 0 ack 40 ------- 1 4.0 0.0 2 15
- 5.800037 2 0 ack 40 ------- 1 4.0 0.0 2 15
r 5.800045 3 2 ack 40 ------- 1 4.0 0.0 3 16
+ 5.800045 2 0 ack 40 ------- 1 4.0 0.0 3 16
- 5.800045 2 0 ack 40 ------- 1 4.0 0.0 3 16
r 5.800053 3 2 ack 40 ------- 1 4.0 0.0 4 17
+ 5.800053 2 0 ack 40 ------- 1 4.0 0.0 4 17
- 5.800053 2 0 ack 40 ------- 1 4.0 0.0 4 17
r 6.300012 2 1 ack 40 ------- 2 5.0 1.0 0 12
r 6.30002 2 1 ack 40 ------- 2 5.0 1.0 1 13
6.30002  1  0  5  0  cwnd_ 2.000 
6.30002  1  0  5  0  ack_ 1
6.30002  1  0  5  0  rtt_ 3.300 
6.30002  1  0  5  0  cwnd_ 2.500 
+ 6.30002 1 2 tcp 1000 ------- 2 1.0 5.0 3 18
- 6.30002 1 2 tcp 1000 ------- 2 1.0 5.0 3 18
6.30002  1  0  5  0  maxseq_ 3
r 6.300037 2 0 ack 40 ------- 1 4.0 0.0 2 15
6.30004  0  0  4  0  ack_ 2
+ 6.300037 0 2 tcp 1000 ------- 1 0.0 4.0 5 19
- 6.300037 0 2 tcp 1000 ------- 1 0.0 4.0 5 19
6.30004  0  0  4  0  maxseq_ 5
r 6.300045 2 0 ack 40 ------- 1 4.0 0.0 3 16
6.30005  0  0  4  0  ack_ 3
+ 6.300045 0 2 tcp 1000 ------- 1 0.0 4.0 6 20
- 6.300045 0 2 tcp 1000 ------- 1 0.0 4.0 6 20
6.30005  0  0  4  0  maxseq_ 6
r 6.300053 2 0 ack 40 ------- 1 4.0 0.0 4 17
6.30005  0  0  4  0  ack_ 4
+ 6.300053 0 2 tcp 1000 ------- 1 0.0 4.0 7 21
- 6.300053 0 2 tcp 1000 ------- 1 0.0 4.0 7 21
6.30005  0  0  4  0  maxseq_ 7
r 6.600025 2 1 ack 40 ------- 2 5.0 1.0 2 14
6.60002  1  0  5  0  ack_ 2
+ 6.600025 1 2 tcp 1000 ------- 2 1.0 5.0 4 22
- 6.600025 1 2 tcp 1000 ------- 2 1.0 5.0 4 22
6.60002  1  0  5  0  maxseq_ 4
r 6.800039 0 2 tcp 1000 ------- 1 0.0 4.0 5 19
+ 6.800039 2 3 tcp 1000 ------- 1 0.0 4.0 5 19
- 6.800039 2 3 tcp 1000 ------- 1 0.0 4.0 5 19
r 6.800047 0 2 tcp 1000 ------- 1 0.0 4.0 6 20
+ 6.800047 2 3 tcp 1000 ------- 1 0.0 4.0 6 20
- 6.800047 2 3 tcp 1000 ------- 1 0.0 4.0 6 20
r 6.800055 0 2 tcp 1000 ------- 1 0.0 4.0 7 21
+ 6.800055 2 3 tcp 1000 ------- 1 0.0 4.0 7 21
- 6.800055 2 3 tcp 1000 ------- 1 0.0 4.0 7 21
r 6.850047 2 3 tcp 1000 ------- 1 0.0 4.0 5 19
+ 6.850047 3 4 tcp 1000 ------- 1 0.0 4.0 5 19
- 6.850047 3 4 tcp 1000 ------- 1 0.0 4.0 5 19
r 6.850055 2 3 tcp 1000 ------- 1 0.0 4.0 6 20
+ 6.850055 3 4 tcp 1000 ------- 1 0.0 4.0 6 20
- 6.850055 3 4 tcp 1000 ------- 1 0.0 4.0 6 20
r 6.850063 2 3 tcp 1000 ------- 1 0.0 4.0 7 21
+ 6.850063 3 4 tcp 1000 ------- 1 0.0 4.0 7 21
- 6.850063 3 4 tcp 1000 ------- 1 0.0 4.0 7 21
r 7.100022 1 2 tcp 1000 ------- 2 1.0 5.0 3 18
+ 7.100022 2 3 tcp 1000 ------- 2 1.0 5.0 3 18
- 7.100022 2 3 tcp 1000 ------- 2 1.0 5.0 3 18
r 7.15003 2 3 tcp 1000 ------- 2 1.0 5.0 3 18
+ 7.15003 3 5 tcp 1000 ------- 2 1.0 5.0 3 18
- 7.15003 3 5 tcp 1000 ------- 2 1.0 5.0 3 18
r 7.350049 3 4 tcp 1000 ------- 1 0.0 4.0 5 19
+ 7.350049 4 3 ack 40 ------- 1 4.0 0.0 5 23
- 7.350049 4 3 ack 40 ------- 1 4.0 0.0 5 23
r 7.350057 3 4 tcp 1000 ------- 1 0.0 4.0 6 20
+ 7.350057 4 3 ack 40 ------- 1 4.0 0.0 6 24
- 7.350057 4 3 ack 40 ------- 1 4.0 0.0 6 24
r 7.350065 3 4 tcp 1000 ------- 1 0.0 4.0 7 21
+ 7.350065 4 3 ack 40 ------- 1 4.0 0.0 7 25
- 7.350065 4 3 ack 40 ------- 1 4.0 0.0 7 25
r 7.400027 1 2 tcp 1000 ------- 2 1.0 5.0 4 22
+ 7.400027 2 3 tcp 1000 ------- 2 1.0 5.0 4 22
- 7.400027 2 3 tcp 1000 ------- 2 1.0 5.0 4 22
r 7.450035 2 3 tcp 1000 ------- 2 1.0 5.0 4 22
+ 7.450035 3 5 tcp 1000 ------- 2 1.0 5.0 4 22
- 7.450035 3 5 tcp 1000 ------- 2 1.0 5.0 4 22
r 7.85005 4 3 ack 40 ------- 1 4.0 0.0 5 23
+ 7.85005 3 2 ack 40 ------- 1 4.0 0.0 5 23
- 7.85005 3 2 ack 40 ------- 1 4.0 0.0 5 23
r 7.850058 4 3 ack 40 ------- 1 4.0 0.0 6 24
+ 7.850058 3 2 ack 40 ------- 1 4.0 0.0 6 24
- 7.850058 3 2 ack 40 ------- 1 4.0 0.0 6 24
r 7.850066 4 3 ack 40 ------- 1 4.0 0.0 7 25
+ 7.850066 3 2 ack 40 ------- 1 4.0 0.0 7 25
- 7.850066 3 2 ack 40 ------- 1 4.0 0.0 7 25
r 7.90005 3 2 ack 40 ------- 1 4.0 0.0 5 23
+ 7.90005 2 0 ack 40 ------- 1 4.0 0.0 5 23
- 7.90005 2 0 ack 40 ------- 1 4.0 0.0 5 23
r 7.900058 3 2 ack 40 ------- 1 4.0 0.0 6 24
+ 7.900058 2 0 ack 40 ------- 1 4.0 0.0 6 24
- 7.900058 2 0 ack 40 ------- 1 4.0 0.0 6 24
r 7.900066 3 2 ack 40 ------- 1 4.0 0.0 7 25
+ 7.900066 2 0 ack 40 ------- 1 4.0 0.0 7 25
- 7.900066 2 0 ack 40 ------- 1 4.0 0.0 7 25
r 7.950032 3 5 tcp 1000 ------- 2 1.0 5.0 3 18
+ 7.950032 5 3 ack 40 ------- 2 5.0 1.0 3 26
- 7.950032 5 3 ack 40 ------- 2 5.0 1.0 3 26
r 8.250037 3 5 tcp 1000 ------- 2 1.0 5.0 4 22
+ 8.250037 5 3 ack 40 ------- 2 5.0 1.0 4 27
- 8.250037 5 3 ack 40 ------- 2 5.0 1.0 4 27
r 8.40005 2 0 ack 40 ------- 1 4.0 0.0 5 23
8.40005  0  0  4  0  ack_ 5
8.40005  0  0  4  0  cwnd_ 4.000 
+ 8.40005 0 2 tcp 1000 ------- 1 0.0 4.0 8 28
- 8.40005 0 2 tcp 1000 ------- 1 0.0 4.0 8 28
8.40005  0  0  4  0  maxseq_ 8
+ 8.40005 0 2 tcp 1000 ------- 1 0.0 4.0 9 29
8.40005  0  0  4  0  maxseq_ 9
- 8.400052 0 2 tcp 1000 ------- 1 0.0 4.0 9 29
r 8.400058 2 0 ack 40 ------- 1 4.0 0.0 6 24
8.40006  0  0  4  0  ack_ 6
8.40006  0  0  4  0  cwnd_ 5.000 
+ 8.400058 0 2 tcp 1000 ------- 1 0.0 4.0 10 30
- 8.400058 0 2 tcp 1000 ------- 1 0.0 4.0 10 30
8.40006  0  0  4  0  maxseq_ 10
+ 8.400058 0 2 tcp 1000 ------- 1 0.0 4.0 11 31
8.40006  0  0  4  0  maxseq_ 11
- 8.40006 0 2 tcp 1000 ------- 1 0.0 4.0 11 31
r 8.400066 2 0 ack 40 ------- 1 4.0 0.0 7 25
8.40007  0  0  4  0  ack_ 7
8.40007  0  0  4  0  cwnd_ 6.000 
+ 8.400066 0 2 tcp 1000 ------- 1 0.0 4.0 12 32
- 8.400066 0 2 tcp 1000 ------- 1 0.0 4.0 12 32
8.40007  0  0  4  0  maxseq_ 12
+ 8.400066 0 2 tcp 1000 ------- 1 0.0 4.0 13 33
8.40007  0  0  4  0  maxseq_ 13
- 8.400068 0 2 tcp 1000 ------- 1 0.0 4.0 13 33
r 8.750033 5 3 ack 40 ------- 2 5.0 1.0 3 26
+ 8.750033 3 2 ack 40 ------- 2 5.0 1.0 3 26
- 8.750033 3 2 ack 40 ------- 2 5.0 1.0 3 26
r 8.800033 3 2 ack 40 ------- 2 5.0 1.0 3 26
+ 8.800033 2 1 ack 40 ------- 2 5.0 1.0 3 26
- 8.800033 2 1 ack 40 ------- 2 5.0 1.0 3 26
r 8.900052 0 2 tcp 1000 ------- 1 0.0 4.0 8 28
+ 8.900052 2 3 tcp 1000 ------- 1 0.0 4.0 8 28
- 8.900052 2 3 tcp 1000 ------- 1 0.0 4.0 8 28
r 8.900054 0 2 tcp 1000 ------- 1 0.0 4.0 9 29
+ 8.900054 2 3 tcp 1000 ------- 1 0.0 4.0 9 29
- 8.90006 2 3 tcp 1000 ------- 1 0.0 4.0 9 29
r 8.90006 0 2 tcp 1000 ------- 1 0.0 4.0 10 30
+ 8.90006 2 3 tcp 1000 ------- 1 0.0 4.0 10 30
r 8.900062 0 2 tcp 1000 ------- 1 0.0 4.0 11 31
+ 8.900062 2 3 tcp 1000 ------- 1 0.0 4.0 11 31
- 8.900068 2 3 tcp 1000 ------- 1 0.0 4.0 10 30
r 8.900068 0 2 tcp 1000 ------- 1 0.0 4.0 12 32
+ 8.900068 2 3 tcp 1000 ------- 1 0.0 4.0 12 32
r 8.90007 0 2 tcp 1000 ------- 1 0.0 4.0 13 33
+ 8.90007 2 3 tcp 1000 ------- 1 0.0 4.0 13 33
- 8.900076 2 3 tcp 1000 ------- 1 0.0 4.0 11 31
- 8.900084 2 3 tcp 1000 ------- 1 0.0 4.0 12 32
- 8.900092 2 3 tcp 1000 ------- 1 0.0 4.0 13 33
r 8.95006 2 3 tcp 1000 ------- 1 0.0 4.0 8 28
+ 8.95006 3 4 tcp 1000 ------- 1 0.0 4.0 8 28
- 8.95006 3 4 tcp 1000 ------- 1 0.0 4.0 8 28
r 8.950068 2 3 tcp 1000 ------- 1 0.0 4.0 9 29
+ 8.950068 3 4 tcp 1000 ------- 1 0.0 4.0 9 29
- 8.950068 3 4 tcp 1000 ------- 1 0.0 4.0 9 29
r 8.950076 2 3 tcp 1000 ------- 1 0.0 4.0 10 30
+ 8.950076 3 4 tcp 1000 ------- 1 0.0 4.0 10 30
- 8.950076 3 4 tcp 1000 ------- 1 0.0 4.0 10 30
r 8.950084 2 3 tcp 1000 ------- 1 0.0 4.0 11 31
+ 8.950084 3 4 tcp 1000 ------- 1 0.0 4.0 11 31
- 8.950084 3 4 tcp 1000 ------- 1 0.0 4.0 11 31
r 8.950092 2 3 tcp 1000 ------- 1 0.0 4.0 12 32
+ 8.950092 3 4 tcp 1000 ------- 1 0.0 4.0 12 32
- 8.950092 3 4 tcp 1000 ------- 1 0.0 4.0 12 32
r 8.9501 2 3 tcp 1000 ------- 1 0.0 4.0 13 33
+ 8.9501 3 4 tcp 1000 ------- 1 0.0 4.0 13 33
- 8.9501 3 4 tcp 1000 ------- 1 0.0 4.0 13 33
r 9.050037 5 3 ack 40 ------- 2 5.0 1.0 4 27
+ 9.050037 3 2 ack 40 ------- 2 5.0 1.0 4 27
- 9.050037 3 2 ack 40 ------- 2 5.0 1.0 4 27
r 9.100037 3 2 ack 40 ------- 2 5.0 1.0 4 27
+ 9.100037 2 1 ack 40 ------- 2 5.0 1.0 4 27
- 9.100037 2 1 ack 40 ------- 2 5.0 1.0 4 27
r 9.450062 3 4 tcp 1000 ------- 1 0.0 4.0 8 28
+ 9.450062 4 3 ack 40 ------- 1 4.0 0.0 8 34
- 9.450062 4 3 ack 40 ------- 1 4.0 0.0 8 34
r 9.45007 3 4 tcp 1000 ------- 1 0.0 4.0 9 29
+ 9.45007 4 3 ack 40 ------- 1 4.0 0.0 9 35
- 9.45007 4 3 ack 40 ------- 1 4.0 0.0 9 35
r 9.450078 3 4 tcp 1000 ------- 1 0.0 4.0 10 30
+ 9.450078 4 3 ack 40 ------- 1 4.0 0.0 10 36
- 9.450078 4 3 ack 40 ------- 1 4.0 0.0 10 36
r 9.450086 3 4 tcp 1000 ------- 1 0.0 4.0 11 31
+ 9.450086 4 3 ack 40 ------- 1 4.0 0.0 11 37
- 9.450086 4 3 ack 40 ------- 1 4.0 0.0 11 37
r 9.450094 3 4 tcp 1000 ------- 1 0.0 4.0 12 32
+ 9.450094 4 3 ack 40 ------- 1 4.0 0.0 12 38
- 9.450094 4 3 ack 40 ------- 1 4.0 0.0 12 38
r 9.450102 3 4 tcp 1000 ------- 1 0.0 4.0 13 33
+ 9.450102 4 3 ack 40 ------- 1 4.0 0.0 13 39
- 9.450102 4 3 ack 40 ------- 1 4.0 0.0 13 39
r 9.600033 2 1 ack 40 ------- 2 5.0 1.0 3 26
9.60003  1  0  5  0  ack_ 3
+ 9.600033 1 2 tcp 1000 ------- 2 1.0 5.0 5 40
- 9.600033 1 2 tcp 1000 ------- 2 1.0 5.0 5 40
9.60003  1  0  5  0  maxseq_ 5
r 9.900037 2 1 ack 40 ------- 2 5.0 1.0 4 27
9.90004  1  0  5  0  ack_ 4
+ 9.900037 1 2 tcp 1000 ------- 2 1.0 5.0 6 41
- 9.900037 1 2 tcp 1000 ------- 2 1.0 5.0 6 41
9.90004  1  0  5  0  maxseq_ 6
r 9.950062 4 3 ack 40 ------- 1 4.0 0.0 8 34
+ 9.950062 3 2 ack 40 ------- 1 4.0 0.0 8 34
- 9.950062 3 2 ack 40 ------- 1 4.0 0.0 8 34
r 9.95007 4 3 ack 40 ------- 1 4.0 0.0 9 35
+ 9.95007 3 2 ack 40 ------- 1 4.0 0.0 9 35
- 9.95007 3 2 ack 40 ------- 1 4.0 0.0 9 35
r 9.950078 4 3 ack 40 ------- 1 4.0 0.0 10 36
+ 9.950078 3 2 ack 40 ------- 1 4.0 0.0 10 36
- 9.950078 3 2 ack 40 ------- 1 4.0 0.0 10 36
r 9.950086 4 3 ack 40 ------- 1 4.0 0.0 11 37
+ 9.950086 3 2 ack 40 ------- 1 4.0 0.0 11 37
- 9.950086 3 2 ack 40 ------- 1 4.0 0.0 11 37
r 9.950094 4 3 ack 40 ------- 1 4.0 0.0 12 38
+ 9.950094 3 2 ack 40 ------- 1 4.0 0.0 12 38
- 9.950094 3 2 ack 40 ------- 1 4.0 0.0 12 38
r 9.950102 4 3 ack 40 ------- 1 4.0 0.0 13 39
+ 9.950102 3 2 ack 40 ------- 1 4.0 0.0 13 39
- 9.950102 3 2 ack 40 ------- 1 4.0 0.0 13 39
r 10.000062 3 2 ack 40 ------- 1 4.0 0.0 8 34
+ 10.000062 2 0 ack 40 ------- 1 4.0 0.0 8 34
- 10.000062 2 0 ack 40 ------- 1 4.0 0.0 8 34
r 10.00007 3 2 ack 40 ------- 1 4.0 0.0 9 35
+ 10.00007 2 0 ack 40 ------- 1 4.0 0.0 9 35
- 10.00007 2 0 ack 40 ------- 1 4.0 0.0 9 35
r 10.000078 3 2 ack 40 ------- 1 4.0 0.0 10 36
+ 10.000078 2 0 ack 40 ------- 1 4.0 0.0 10 36
- 10.000078 2 0 ack 40 ------- 1 4.0 0.0 10 36
r 10.000086 3 2 ack 40 ------- 1 4.0 0.0 11 37
+ 10.000086 2 0 ack 40 ------- 1 4.0 0.0 11 37
- 10.000086 2 0 ack 40 ------- 1 4.0 0.0 11 37
r 10.000094 3 2 ack 40 ------- 1 4.0 0.0 12 38
+ 10.000094 2 0 ack 40 ------- 1 4.0 0.0 12 38
- 10.000094 2 0 ack 40 ------- 1 4.0 0.0 12 38
r 10.000102 3 2 ack 40 ------- 1 4.0 0.0 13 39
+ 10.000102 2 0 ack 40 ------- 1 4.0 0.0 13 39
- 10.000102 2 0 ack 40 ------- 1 4.0 0.0 13 39
r 10.400035 1 2 tcp 1000 ------- 2 1.0 5.0 5 40
+ 10.400035 2 3 tcp 1000 ------- 2 1.0 5.0 5 40
- 10.400035 2 3 tcp 1000 ------- 2 1.0 5.0 5 40
r 10.450043 2 3 tcp 1000 ------- 2 1.0 5.0 5 40
+ 10.450043 3 5 tcp 1000 ------- 2 1.0 5.0 5 40
- 10.450043 3 5 tcp 1000 ------- 2 1.0 5.0 5 40
r 10.500062 2 0 ack 40 ------- 1 4.0 0.0 8 34
10.50006 0  0  4  0  ack_ 8
+ 10.500062 0 2 tcp 1000 ------- 1 0.0 4.0 14 42
- 10.500062 0 2 tcp 1000 ------- 1 0.0 4.0 14 42
10.50006 0  0  4  0  maxseq_ 14
r 10.50007 2 0 ack 40 ------- 1 4.0 0.0 9 35
10.50007 0  0  4  0  ack_ 9
+ 10.50007 0 2 tcp 1000 ------- 1 0.0 4.0 15 43
- 10.50007 0 2 tcp 1000 ------- 1 0.0 4.0 15 43
10.50007 0  0  4  0  maxseq_ 15
r 10.500078 2 0 ack 40 ------- 1 4.0 0.0 10 36
10.50008 0  0  4  0  ack_ 10
+ 10.500078 0 2 tcp 1000 ------- 1 0.0 4.0 16 44
- 10.500078 0 2 tcp 1000 ------- 1 0.0 4.0 16 44
10.50008 0  0  4  0  maxseq_ 16
r 10.500086 2 0 ack 40 ------- 1 4.0 0.0 11 37
10.50009 0  0  4  0  ack_ 11
+ 10.500086 0 2 tcp 1000 ------- 1 0.0 4.0 17 45
- 10.500086 0 2 tcp 1000 ------- 1 0.0 4.0 17 45
10.50009 0  0  4  0  maxseq_ 17
r 10.500094 2 0 ack 40 ------- 1 4.0 0.0 12 38
10.50009 0  0  4  0  ack_ 12
+ 10.500094 0 2 tcp 1000 ------- 1 0.0 4.0 18 46
- 10.500094 0 2 tcp 1000 ------- 1 0.0 4.0 18 46
10.50009 0  0  4  0  maxseq_ 18
r 10.500102 2 0 ack 40 ------- 1 4.0 0.0 13 39
10.50010 0  0  4  0  ack_ 13
+ 10.500102 0 2 tcp 1000 ------- 1 0.0 4.0 19 47
- 10.500102 0 2 tcp 1000 ------- 1 0.0 4.0 19 47
10.50010 0  0  4  0  maxseq_ 19
r 10.700039 1 2 tcp 1000 ------- 2 1.0 5.0 6 41
+ 10.700039 2 3 tcp 1000 ------- 2 1.0 5.0 6 41
- 10.700039 2 3 tcp 1000 ------- 2 1.0 5.0 6 41
r 10.750047 2 3 tcp 1000 ------- 2 1.0 5.0 6 41
+ 10.750047 3 5 tcp 1000 ------- 2 1.0 5.0 6 41
- 10.750047 3 5 tcp 1000 ------- 2 1.0 5.0 6 41
r 11.000064 0 2 tcp 1000 ------- 1 0.0 4.0 14 42
+ 11.000064 2 3 tcp 1000 ------- 1 0.0 4.0 14 42
- 11.000064 2 3 tcp 1000 ------- 1 0.0 4.0 14 42
r 11.000072 0 2 tcp 1000 ------- 1 0.0 4.0 15 43
+ 11.000072 2 3 tcp 1000 ------- 1 0.0 4.0 15 43
- 11.000072 2 3 tcp 1000 ------- 1 0.0 4.0 15 43
r 11.00008 0 2 tcp 1000 ------- 1 0.0 4.0 16 44
+ 11.00008 2 3 tcp 1000 ------- 1 0.0 4.0 16 44
- 11.00008 2 3 tcp 1000 ------- 1 0.0 4.0 16 44
r 11.000088 0 2 tcp 1000 ------- 1 0.0 4.0 17 45
+ 11.000088 2 3 tcp 1000 ------- 1 0.0 4.0 17 45
- 11.000088 2 3 tcp 1000 ------- 1 0.0 4.0 17 45
r 11.000096 0 2 tcp 1000 ------- 1 0.0 4.0 18 46
+ 11.000096 2 3 tcp 1000 ------- 1 0.0 4.0 18 46
- 11.000096 2 3 tcp 1000 ------- 1 0.0 4.0 18 46
r 11.000104 0 2 tcp 1000 ------- 1 0.0 4.0 19 47
+ 11.000104 2 3 tcp 1000 ------- 1 0.0 4.0 19 47
- 11.000104 2 3 tcp 1000 ------- 1 0.0 4.0 19 47
r 11.050072 2 3 tcp 1000 ------- 1 0.0 4.0 14 42
+ 11.050072 3 4 tcp 1000 ------- 1 0.0 4.0 14 42
- 11.050072 3 4 tcp 1000 ------- 1 0.0 4.0 14 42
r 11.05008 2 3 tcp 1000 ------- 1 0.0 4.0 15 43
+ 11.05008 3 4 tcp 1000 ------- 1 0.0 4.0 15 43
- 11.05008 3 4 tcp 1000 ------- 1 0.0 4.0 15 43
r 11.050088 2 3 tcp 1000 ------- 1 0.0 4.0 16 44
+ 11.050088 3 4 tcp 1000 ------- 1 0.0 4.0 16 44
- 11.050088 3 4 tcp 1000 ------- 1 0.0 4.0 16 44
r 11.050096 2 3 tcp 1000 ------- 1 0.0 4.0 17 45
+ 11.050096 3 4 tcp 1000 ------- 1 0.0 4.0 17 45
- 11.050096 3 4 tcp 1000 ------- 1 0.0 4.0 17 45
r 11.050104 2 3 tcp 1000 ------- 1 0.0 4.0 18 46
+ 11.050104 3 4 tcp 1000 ------- 1 0.0 4.0 18 46
- 11.050104 3 4 tcp 1000 ------- 1 0.0 4.0 18 46
r 11.050112 2 3 tcp 1000 ------- 1 0.0 4.0 19 47
+ 11.050112 3 4 tcp 1000 ------- 1 0.0 4.0 19 47
- 11.050112 3 4 tcp 1000 ------- 1 0.0 4.0 19 47
r 11.250045 3 5 tcp 1000 ------- 2 1.0 5.0 5 40
+ 11.250045 5 3 ack 40 ------- 2 5.0 1.0 5 48
- 11.250045 5 3 ack 40 ------- 2 5.0 1.0 5 48
r 11.550049 3 5 tcp 1000 ------- 2 1.0 5.0 6 41
+ 11.550049 5 3 ack 40 ------- 2 5.0 1.0 6 49
- 11.550049 5 3 ack 40 ------- 2 5.0 1.0 6 49
r 11.550074 3 4 tcp 1000 ------- 1 0.0 4.0 14 42
+ 11.550074 4 3 ack 40 ------- 1 4.0 0.0 14 50
- 11.550074 4 3 ack 40 ------- 1 4.0 0.0 14 50
r 11.550082 3 4 tcp 1000 ------- 1 0.0 4.0 15 43
+ 11.550082 4 3 ack 40 ------- 1 4.0 0.0 15 51
- 11.550082 4 3 ack 40 ------- 1 4.0 0.0 15 51
r 11.55009 3 4 tcp 1000 ------- 1 0.0 4.0 16 44
+ 11.55009 4 3 ack 40 ------- 1 4.0 0.0 16 52
- 11.55009 4 3 ack 40 ------- 1 4.0 0.0 16 52
r 11.550098 3 4 tcp 1000 ------- 1 0.0 4.0 17 45
+ 11.550098 4 3 ack 40 ------- 1 4.0 0.0 17 53
- 11.550098 4 3 ack 40 ------- 1 4.0 0.0 17 53
r 11.550106 3 4 tcp 1000 ------- 1 0.0 4.0 18 46
+ 11.550106 4 3 ack 40 ------- 1 4.0 0.0 18 54
- 11.550106 4 3 ack 40 ------- 1 4.0 0.0 18 54
r 11.550114 3 4 tcp 1000 ------- 1 0.0 4.0 19 47
+ 11.550114 4 3 ack 40 ------- 1 4.0 0.0 19 55
- 11.550114 4 3 ack 40 ------- 1 4.0 0.0 19 55
r 12.050045 5 3 ack 40 ------- 2 5.0 1.0 5 48
+ 12.050045 3 2 ack 40 ------- 2 5.0 1.0 5 48
- 12.050045 3 2 ack 40 ------- 2 5.0 1.0 5 48
r 12.050074 4 3 ack 40 ------- 1 4.0 0.0 14 50
+ 12.050074 3 2 ack 40 ------- 1 4.0 0.0 14 50
- 12.050074 3 2 ack 40 ------- 1 4.0 0.0 14 50
r 12.050082 4 3 ack 40 ------- 1 4.0 0.0 15 51
+ 12.050082 3 2 ack 40 ------- 1 4.0 0.0 15 51
- 12.050082 3 2 ack 40 ------- 1 4.0 0.0 15 51
r 12.05009 4 3 ack 40 ------- 1 4.0 0.0 16 52
+ 12.05009 3 2 ack 40 ------- 1 4.0 0.0 16 52
- 12.05009 3 2 ack 40 ------- 1 4.0 0.0 16 52
r 12.050098 4 3 ack 40 ------- 1 4.0 0.0 17 53
+ 12.050098 3 2 ack 40 ------- 1 4.0 0.0 17 53
- 12.050098 3 2 ack 40 ------- 1 4.0 0.0 17 53
r 12.050106 4 3 ack 40 ------- 1 4.0 0.0 18 54
+ 12.050106 3 2 ack 40 ------- 1 4.0 0.0 18 54
- 12.050106 3 2 ack 40 ------- 1 4.0 0.0 18 54
r 12.050114 4 3 ack 40 ------- 1 4.0 0.0 19 55
+ 12.050114 3 2 ack 40 ------- 1 4.0 0.0 19 55
- 12.050114 3 2 ack 40 ------- 1 4.0 0.0 19 55
r 12.100045 3 2 ack 40 ------- 2 5.0 1.0 5 48
+ 12.100045 2 1 ack 40 ------- 2 5.0 1.0 5 48
- 12.100045 2 1 ack 40 ------- 2 5.0 1.0 5 48
r 12.100075 3 2 ack 40 ------- 1 4.0 0.0 14 50
+ 12.100075 2 0 ack 40 ------- 1 4.0 0.0 14 50
- 12.100075 2 0 ack 40 ------- 1 4.0 0.0 14 50
r 12.100083 3 2 ack 40 ------- 1 4.0 0.0 15 51
+ 12.100083 2 0 ack 40 ------- 1 4.0 0.0 15 51
- 12.100083 2 0 ack 40 ------- 1 4.0 0.0 15 51
r 12.100091 3 2 ack 40 ------- 1 4.0 0.0 16 52
+ 12.100091 2 0 ack 40 ------- 1 4.0 0.0 16 52
- 12.100091 2 0 ack 40 ------- 1 4.0 0.0 16 52
r 12.100099 3 2 ack 40 ------- 1 4.0 0.0 17 53
+ 12.100099 2 0 ack 40 ------- 1 4.0 0.0 17 53
- 12.100099 2 0 ack 40 ------- 1 4.0 0.0 17 53
r 12.100107 3 2 ack 40 ------- 1 4.0 0.0 18 54
+ 12.100107 2 0 ack 40 ------- 1 4.0 0.0 18 54
- 12.100107 2 0 ack 40 ------- 1 4.0 0.0 18 54
r 12.100115 3 2 ack 40 ------- 1 4.0 0.0 19 55
+ 12.100115 2 0 ack 40 ------- 1 4.0 0.0 19 55
- 12.100115 2 0 ack 40 ------- 1 4.0 0.0 19 55
r 12.35005 5 3 ack 40 ------- 2 5.0 1.0 6 49
+ 12.35005 3 2 ack 40 ------- 2 5.0 1.0 6 49
- 12.35005 3 2 ack 40 ------- 2 5.0 1.0 6 49
r 12.40005 3 2 ack 40 ------- 2 5.0 1.0 6 49
+ 12.40005 2 1 ack 40 ------- 2 5.0 1.0 6 49
- 12.40005 2 1 ack 40 ------- 2 5.0 1.0 6 49
r 12.600075 2 0 ack 40 ------- 1 4.0 0.0 14 50
12.60007 0  0  4  0  ack_ 14
12.60007 0  0  4  0  cwnd_ 7.000 
+ 12.600075 0 2 tcp 1000 ------- 1 0.0 4.0 20 56
- 12.600075 0 2 tcp 1000 ------- 1 0.0 4.0 20 56
12.60007 0  0  4  0  maxseq_ 20
+ 12.600075 0 2 tcp 1000 ------- 1 0.0 4.0 21 57
12.60007 0  0  4  0  maxseq_ 21
- 12.600077 0 2 tcp 1000 ------- 1 0.0 4.0 21 57
r 12.600083 2 0 ack 40 ------- 1 4.0 0.0 15 51
12.60008 0  0  4  0  ack_ 15
12.60008 0  0  4  0  cwnd_ 8.000 
+ 12.600083 0 2 tcp 1000 ------- 1 0.0 4.0 22 58
- 12.600083 0 2 tcp 1000 ------- 1 0.0 4.0 22 58
12.60008 0  0  4  0  maxseq_ 22
+ 12.600083 0 2 tcp 1000 ------- 1 0.0 4.0 23 59
12.60008 0  0  4  0  maxseq_ 23
- 12.600085 0 2 tcp 1000 ------- 1 0.0 4.0 23 59
r 12.600091 2 0 ack 40 ------- 1 4.0 0.0 16 52
12.60009 0  0  4  0  ack_ 16
12.60009 0  0  4  0  cwnd_ 9.000 
+ 12.600091 0 2 tcp 1000 ------- 1 0.0 4.0 24 60
- 12.600091 0 2 tcp 1000 ------- 1 0.0 4.0 24 60
12.60009 0  0  4  0  maxseq_ 24
+ 12.600091 0 2 tcp 1000 ------- 1 0.0 4.0 25 61
12.60009 0  0  4  0  maxseq_ 25
- 12.600093 0 2 tcp 1000 ------- 1 0.0 4.0 25 61
r 12.600099 2 0 ack 40 ------- 1 4.0 0.0 17 53
12.60010 0  0  4  0  ack_ 17
12.60010 0  0  4  0  cwnd_ 10.000
+ 12.600099 0 2 tcp 1000 ------- 1 0.0 4.0 26 62
- 12.600099 0 2 tcp 1000 ------- 1 0.0 4.0 26 62
12.60010 0  0  4  0  maxseq_ 26
+ 12.600099 0 2 tcp 1000 ------- 1 0.0 4.0 27 63
12.60010 0  0  4  0  maxseq_ 27
- 12.600101 0 2 tcp 1000 ------- 1 0.0 4.0 27 63
r 12.600107 2 0 ack 40 ------- 1 4.0 0.0 18 54
12.60011 0  0  4  0  ack_ 18
12.60011 0  0  4  0  cwnd_ 11.000
+ 12.600107 0 2 tcp 1000 ------- 1 0.0 4.0 28 64
- 12.600107 0 2 tcp 1000 ------- 1 0.0 4.0 28 64
12.60011 0  0  4  0  maxseq_ 28
+ 12.600107 0 2 tcp 1000 ------- 1 0.0 4.0 29 65
12.60011 0  0  4  0  maxseq_ 29
- 12.600109 0 2 tcp 1000 ------- 1 0.0 4.0 29 65
r 12.600115 2 0 ack 40 ------- 1 4.0 0.0 19 55
12.60011 0  0  4  0  ack_ 19
12.60011 0  0  4  0  cwnd_ 12.000
+ 12.600115 0 2 tcp 1000 ------- 1 0.0 4.0 30 66
- 12.600115 0 2 tcp 1000 ------- 1 0.0 4.0 30 66
12.60011 0  0  4  0  maxseq_ 30
+ 12.600115 0 2 tcp 1000 ------- 1 0.0 4.0 31 67
12.60011 0  0  4  0  maxseq_ 31
- 12.600117 0 2 tcp 1000 ------- 1 0.0 4.0 31 67
r 12.900045 2 1 ack 40 ------- 2 5.0 1.0 5 48
12.90005 1  0  5  0  ack_ 5
+ 12.900045 1 2 tcp 1000 ------- 2 1.0 5.0 7 68
- 12.900045 1 2 tcp 1000 ------- 2 1.0 5.0 7 68
12.90005 1  0  5  0  maxseq_ 7
r 13.100077 0 2 tcp 1000 ------- 1 0.0 4.0 20 56
+ 13.100077 2 3 tcp 1000 ------- 1 0.0 4.0 20 56
- 13.100077 2 3 tcp 1000 ------- 1 0.0 4.0 20 56
r 13.100079 0 2 tcp 1000 ------- 1 0.0 4.0 21 57
+ 13.100079 2 3 tcp 1000 ------- 1 0.0 4.0 21 57
r 13.100085 0 2 tcp 1000 ------- 1 0.0 4.0 22 58
+ 13.100085 2 3 tcp 1000 ------- 1 0.0 4.0 22 58
- 13.100085 2 3 tcp 1000 ------- 1 0.0 4.0 21 57
r 13.100087 0 2 tcp 1000 ------- 1 0.0 4.0 23 59
+ 13.100087 2 3 tcp 1000 ------- 1 0.0 4.0 23 59
r 13.100093 0 2 tcp 1000 ------- 1 0.0 4.0 24 60
+ 13.100093 2 3 tcp 1000 ------- 1 0.0 4.0 24 60
- 13.100093 2 3 tcp 1000 ------- 1 0.0 4.0 22 58
r 13.100095 0 2 tcp 1000 ------- 1 0.0 4.0 25 61
+ 13.100095 2 3 tcp 1000 ------- 1 0.0 4.0 25 61
r 13.100101 0 2 tcp 1000 ------- 1 0.0 4.0 26 62
+ 13.100101 2 3 tcp 1000 ------- 1 0.0 4.0 26 62
- 13.100101 2 3 tcp 1000 ------- 1 0.0 4.0 23 59
r 13.100103 0 2 tcp 1000 ------- 1 0.0 4.0 27 63
+ 13.100103 2 3 tcp 1000 ------- 1 0.0 4.0 27 63
r 13.100109 0 2 tcp 1000 ------- 1 0.0 4.0 28 64
+ 13.100109 2 3 tcp 1000 ------- 1 0.0 4.0 28 64
- 13.100109 2 3 tcp 1000 ------- 1 0.0 4.0 24 60
r 13.100111 0 2 tcp 1000 ------- 1 0.0 4.0 29 65
+ 13.100111 2 3 tcp 1000 ------- 1 0.0 4.0 29 65
r 13.100117 0 2 tcp 1000 ------- 1 0.0 4.0 30 66
+ 13.100117 2 3 tcp 1000 ------- 1 0.0 4.0 30 66
d 13.100117 2 3 tcp 1000 ------- 1 0.0 4.0 30 66
- 13.100117 2 3 tcp 1000 ------- 1 0.0 4.0 25 61
r 13.100119 0 2 tcp 1000 ------- 1 0.0 4.0 31 67
+ 13.100119 2 3 tcp 1000 ------- 1 0.0 4.0 31 67
- 13.100125 2 3 tcp 1000 ------- 1 0.0 4.0 26 62
- 13.100133 2 3 tcp 1000 ------- 1 0.0 4.0 27 63
- 13.100141 2 3 tcp 1000 ------- 1 0.0 4.0 28 64
- 13.100149 2 3 tcp 1000 ------- 1 0.0 4.0 29 65
- 13.100157 2 3 tcp 1000 ------- 1 0.0 4.0 31 67
r 13.150085 2 3 tcp 1000 ------- 1 0.0 4.0 20 56
+ 13.150085 3 4 tcp 1000 ------- 1 0.0 4.0 20 56
- 13.150085 3 4 tcp 1000 ------- 1 0.0 4.0 20 56
r 13.150093 2 3 tcp 1000 ------- 1 0.0 4.0 21 57
+ 13.150093 3 4 tcp 1000 ------- 1 0.0 4.0 21 57
- 13.150093 3 4 tcp 1000 ------- 1 0.0 4.0 21 57
r 13.150101 2 3 tcp 1000 ------- 1 0.0 4.0 22 58
+ 13.150101 3 4 tcp 1000 ------- 1 0.0 4.0 22 58
- 13.150101 3 4 tcp 1000 ------- 1 0.0 4.0 22 58
r 13.150109 2 3 tcp 1000 ------- 1 0.0 4.0 23 59
+ 13.150109 3 4 tcp 1000 ------- 1 0.0 4.0 23 59
- 13.150109 3 4 tcp 1000 ------- 1 0.0 4.0 23 59
r 13.150117 2 3 tcp 1000 ------- 1 0.0 4.0 24 60