0.00000  0  0  4  0  cwnd_ 1.000 
0.00000  0  0  4  0  ssthresh_ 20
0.00000  0  0  4  0  ack_ -1
0.00000  0  0  4  0  maxseq_ -1
0.00000  0  0  4  0  rtt_ 0.000 
0.00000  1  0  5  0  cwnd_ 1.000 
0.00000  1  0  5  0  ssthresh_ 20
0.00000  1  0  5  0  ack_ -1
0.00000  1  0  5  0  maxseq_ -1
0.00000  1  0  5  0  rtt_ 0.000 
0.00000  0  0  4  0  ssthresh_ 1000
0.00000  1  0  5  0  ssthresh_ 1000
+ 0 1 2 tcp 40 ------- 2 1.0 5.0 0 0
- 0 1 2 tcp 40 ------- 2 1.0 5.0 0 0
0.00000  1  0  5  0  maxseq_ 0
+ 0 0 2 tcp 40 ------- 1 0.0 4.0 0 1
- 0 0 2 tcp 40 ------- 1 0.0 4.0 0 1
0.00000  0  0  4  0  maxseq_ 0
r 0.5 0 2 tcp 40 ------- 1 0.0 4.0 0 1
+ 0.5 2 3 tcp 40 ------- 1 0.0 4.0 0 1
- 0.5 2 3 tcp 40 ------- 1 0.0 4.0 0 1
r 0.55 2 3 tcp 40 ------- 1 0.0 4.0 0 1
+ 0.55 3 4 tcp 40 ------- 1 0.0 4.0 0 1
- 0.55 3 4 tcp 40 ------- 1 0.0 4.0 0 1
r 0.8 1 2 tcp 40 ------- 2 1.0 5.0 0 0
+ 0.8 2 3 tcp 40 ------- 2 1.0 5.0 0 0
- 0.8 2 3 tcp 40 ------- 2 1.0 5.0 0 0
r 0.85 2 3 tcp 40 ------- 2 1.0 5.0 0 0
+ 0.85 3 5 tcp 40 ------- 2 1.0 5.0 0 0
- 0.85 3 5 tcp 40 ------- 2 1.0 5.0 0 0
r 1.05 3 4 tcp 40 ------- 1 0.0 4.0 0 1
+ 1.05 4 3 ack 40 ------- 1 4.0 0.0 0 2
- 1.05 4 3 ack 40 ------- 1 4.0 0.0 0 2
r 1.55 4 3 ack 40 ------- 1 4.0 0.0 0 2
+ 1.55 3 2 ack 40 ------- 1 4.0 0.0 0 2
- 1.55 3 2 ack 40 ------- 1 4.0 0.0 0 2
r 1.600001 3 2 ack 40 ------- 1 4.0 0.0 0 2
+ 1.600001 2 0 ack 40 ------- 1 4.0 0.0 0 2
- 1.600001 2 0 ack 40 ------- 1 4.0 0.0 0 2
r 1.65 3 5 tcp 40 ------- 2 1.0 5.0 0 0
+ 1.65 5 3 ack 40 ------- 2 5.0 1.0 0 3
- 1.65 5 3 ack 40 ------- 2 5.0 1.0 0 3
r 2.100001 2 0 ack 40 ------- 1 4.0 0.0 0 2
2.10000  0  0  4  0  ack_ 0
2.10000  0  0  4  0  rtt_ 2.100 
2.10000  0  0  4  0  cwnd_ 2.000 
+ 2.100001 0 2 tcp 1040 ------- 1 0.0 4.0 1 4
- 2.100001 0 2 tcp 1040 ------- 1 0.0 4.0 1 4
2.10000  0  0  4  0  maxseq_ 1
+ 2.100001 0 2 tcp 1040 ------- 1 0.0 4.0 2 5
2.10000  0  0  4  0  maxseq_ 2
- 2.100003 0 2 tcp 1040 ------- 1 0.0 4.0 2 5
r 2.45 5 3 ack 40 ------- 2 5.0 1.0 0 3
+ 2.45 3 2 ack 40 ------- 2 5.0 1.0 0 3
- 2.45 3 2 ack 40 ------- 2 5.0 1.0 0 3
r 2.500001 3 2 ack 40 ------- 2 5.0 1.0 0 3
+ 2.500001 2 1 ack 40 ------- 2 5.0 1.0 0 3
- 2.500001 2 1 ack 40 ------- 2 5.0 1.0 0 3
r 2.600003 0 2 tcp 1040 ------- 1 0.0 4.0 1 4
+ 2.600003 2 3 tcp 1040 ------- 1 0.0 4.0 1 4
- 2.600003 2 3 tcp 1040 ------- 1 0.0 4.0 1 4
r 2.600005 0 2 tcp 1040 ------- 1 0.0 4.0 2 5
+ 2.600005 2 3 tcp 1040 ------- 1 0.0 4.0 2 5
- 2.600007 2 3 tcp 1040 ------- 1 0.0 4.0 2 5
r 2.650007 2 3 tcp 1040 ------- 1 0.0 4.0 1 4
+ 2.650007 3 4 tcp 1040 ------- 1 0.0 4.0 1 4
- 2.650007 3 4 tcp 1040 ------- 1 0.0 4.0 1 4
r 2.650011 2 3 tcp 1040 ------- 1 0.0 4.0 2 5
+ 2.650011 3 4 tcp 1040 ------- 1 0.0 4.0 2 5
- 2.650011 3 4 tcp 1040 ------- 1 0.0 4.0 2 5
3.00000  1  0  5  0  ssthresh_ 0
3.00000  1  0  5  0  ssthresh_ 2
+ 3 1 2 tcp 40 ---A--- 2 1.0 5.0 0 6
- 3 1 2 tcp 40 ---A--- 2 1.0 5.0 0 6
r 3.150009 3 4 tcp 1040 ------- 1 0.0 4.0 1 4
+ 3.150009 4 3 ack 40 ------- 1 4.0 0.0 1 7
- 3.150009 4 3 ack 40 ------- 1 4.0 0.0 1 7
r 3.150013 3 4 tcp 1040 ------- 1 0.0 4.0 2 5
+ 3.150013 4 3 ack 40 ------- 1 4.0 0.0 2 8
- 3.150013 4 3 ack 40 ------- 1 4.0 0.0 2 8
r 3.300001 2 1 ack 40 ------- 2 5.0 1.0 0 3
3.30000  1  0  5  0  ack_ 0
3.30000  1  0  5  0  cwnd_ 2.000 
3.30000  1  0  5  0  cwnd_ 1.000 
+ 3.300001 1 2 tcp 1040 ------- 2 1.0 5.0 1 9
- 3.300001 1 2 tcp 1040 ------- 2 1.0 5.0 1 9
3.30000  1  0  5  0  maxseq_ 1
r 3.650009 4 3 ack 40 ------- 1 4.0 0.0 1 7
+ 3.650009 3 2 ack 40 ------- 1 4.0 0.0 1 7
- 3.650009 3 2 ack 40 ------- 1 4.0 0.0 1 7
r 3.650013 4 3 ack 40 ------- 1 4.0 0.0 2 8
+ 3.650013 3 2 ack 40 ------- 1 4.0 0.0 2 8
- 3.650013 3 2 ack 40 ------- 1 4.0 0.0 2 8
r 3.700009 3 2 ack 40 ------- 1 4.0 0.0 1 7
+ 3.700009 2 0 ack 40 ------- 1 4.0 0.0 1 7
- 3.700009 2 0 ack 40 ------- 1 4.0 0.0 1 7
r 3.700013 3 2 ack 40 ------- 1 4.0 0.0 2 8
+ 3.700013 2 0 ack 40 ------- 1 4.0 0.0 2 8
- 3.700013 2 0 ack 40 ------- 1 4.0 0.0 2 8
r 3.8 1 2 tcp 40 ---A--- 2 1.0 5.0 0 6
+ 3.8 2 3 tcp 40 ---A--- 2 1.0 5.0 0 6
- 3.8 2 3 tcp 40 ---A--- 2 1.0 5.0 0 6
r 3.85 2 3 tcp 40 ---A--- 2 1.0 5.0 0 6
+ 3.85 3 5 tcp 40 ---A--- 2 1.0 5.0 0 6
- 3.85 3 5 tcp 40 ---A--- 2 1.0 5.0 0 6
r 4.100003 1 2 tcp 1040 ------- 2 1.0 5.0 1 9
+ 4.100003 2 3 tcp 1040 ------- 2 1.0 5.0 1 9
- 4.100003 2 3 tcp 1040 ------- 2 1.0 5.0 1 9
r 4.150007 2 3 tcp 1040 ------- 2 1.0 5.0 1 9
+ 4.150007 3 5 tcp 1040 ------- 2 1.0 5.0 1 9
- 4.150007 3 5 tcp 1040 ------- 2 1.0 5.0 1 9
r 4.200009 2 0 ack 40 ------- 1 4.0 0.0 1 7
4.20001  0  0  4  0  ack_ 1
4.20001  0  0  4  0  cwnd_ 3.000 
+ 4.200009 0 2 tcp 1040 ------- 1 0.0 4.0 3 10
- 4.200009 0 2 tcp 1040 ------- 1 0.0 4.0 3 10
4.20001  0  0  4  0  maxseq_ 3
+ 4.200009 0 2 tcp 1040 ------- 1 0.0 4.0 4 11
4.20001  0  0  4  0  maxseq_ 4
- 4.200011 0 2 tcp 1040 ------- 1 0.0 4.0 4 11
r 4.200013 2 0 ack 40 ------- 1 4.0 0.0 2 8
4.20001  0  0  4  0  ack_ 2
4.20001  0  0  4  0  cwnd_ 4.000 
+ 4.200013 0 2 tcp 1040 ------- 1 0.0 4.0 5 12
4.20001  0  0  4  0  maxseq_ 5
+ 4.200013 0 2 tcp 1040 ------- 1 0.0 4.0 6 13
4.20001  0  0  4  0  maxseq_ 6
- 4.200013 0 2 tcp 1040 ------- 1 0.0 4.0 5 12
- 4.200016 0 2 tcp 1040 ------- 1 0.0 4.0 6 13
r 4.65 3 5 tcp 40 ---A--- 2 1.0 5.0 0 6
+ 4.65 5 3 ack 40 ------- 2 5.0 1.0 0 14
- 4.65 5 3 ack 40 ------- 2 5.0 1.0 0 14
r 4.700011 0 2 tcp 1040 ------- 1 0.0 4.0 3 10
+ 4.700011 2 3 tcp 1040 ------- 1 0.0 4.0 3 10
- 4.700011 2 3 tcp 1040 ------- 1 0.0 4.0 3 10
r 4.700013 0 2 tcp 1040 ------- 1 0.0 4.0 4 11
+ 4.700013 2 3 tcp 1040 ------- 1 0.0 4.0 4 11
r 4.700016 0 2 tcp 1040 ------- 1 0.0 4.0 5 12
+ 4.700016 2 3 tcp 1040 ------- 1 0.0 4.0 5 12
- 4.700016 2 3 tcp 1040 ------- 1 0.0 4.0 4 11
r 4.700018 0 2 tcp 1040 ------- 1 0.0 4.0 6 13
+ 4.700018 2 3 tcp 1040 ------- 1 0.0 4.0 6 13
- 4.70002 2 3 tcp 1040 ------- 1 0.0 4.0 5 12
- 4.700024 2 3 tcp 1040 ------- 1 0.0 4.0 6 13
r 4.750016 2 3 tcp 1040 ------- 1 0.0 4.0 3 10
+ 4.750016 3 4 tcp 1040 ------- 1 0.0 4.0 3 10
- 4.750016 3 4 tcp 1040 ------- 1 0.0 4.0 3 10
r 4.75002 2 3 tcp 1040 ------- 1 0.0 4.0 4 11
+ 4.75002 3 4 tcp 1040 ------- 1 0.0 4.0 4 11
- 4.75002 3 4 tcp 1040 ------- 1 0.0 4.0 4 11
r 4.750024 2 3 tcp 1040 ------- 1 0.0 4.0 5 12
+ 4.750024 3 4 tcp 1040 ------- 1 0.0 4.0 5 12
- 4.750024 3 4 tcp 1040 ------- 1 0.0 4.0 5 12
r 4.750028 2 3 tcp 1040 ------- 1 0.0 4.0 6 13
+ 4.750028 3 4 tcp 1040 ------- 1 0.0 4.0 6 13
- 4.750028 3 4 tcp 1040 ------- 1 0.0 4.0 6 13
r 4.950009 3 5 tcp 1040 ------- 2 1.0 5.0 1 9
+ 4.950009 5 3 ack 40 ------- 2 5.0 1.0 1 15
- 4.950009 5 3 ack 40 ------- 2 5.0 1.0 1 15
r 5.250018 3 4 tcp 1040 ------- 1 0.0 4.0 3 10
+ 5.250018 4 3 ack 40 ------- 1 4.0 0.0 3 16
- 5.250018 4 3 ack 40 ------- 1 4.0 0.0 3 16
r 5.250022 3 4 tcp 1040 ------- 1 0.0 4.0 4 11
+ 5.250022 4 3 ack 40 ------- 1 4.0 0.0 4 17
- 5.250022 4 3 ack 40 ------- 1 4.0 0.0 4 17
r 5.250026 3 4 tcp 1040 ------- 1 0.0 4.0 5 12
+ 5.250026 4 3 ack 40 ------- 1 4.0 0.0 5 18
- 5.250026 4 3 ack 40 ------- 1 4.0 0.0 5 18
r 5.25003 3 4 tcp 1040 ------- 1 0.0 4.0 6 13
+ 5.25003 4 3 ack 40 ------- 1 4.0 0.0 6 19
- 5.25003 4 3 ack 40 ------- 1 4.0 0.0 6 19
r 5.45 5 3 ack 40 ------- 2 5.0 1.0 0 14
+ 5.45 3 2 ack 40 ------- 2 5.0 1.0 0 14
- 5.45 3 2 ack 40 ------- 2 5.0 1.0 0 14
r 5.500001 3 2 ack 40 ------- 2 5.0 1.0 0 14
+ 5.500001 2 1 ack 40 ------- 2 5.0 1.0 0 14
- 5.500001 2 1 ack 40 ------- 2 5.0 1.0 0 14
r 5.750009 5 3 ack 40 ------- 2 5.0 1.0 1 15
+ 5.750009 3 2 ack 40 ------- 2 5.0 1.0 1 15
- 5.750009 3 2 ack 40 ------- 2 5.0 1.0 1 15
r 5.750018 4 3 ack 40 ------- 1 4.0 0.0 3 16
+ 5.750018 3 2 ack 40 ------- 1 4.0 0.0 3 16
- 5.750018 3 2 ack 40 ------- 1 4.0 0.0 3 16
r 5.750022 4 3 ack 40 ------- 1 4.0 0.0 4 17
+ 5.750022 3 2 ack 40 ------- 1 4.0 0.0 4 17
- 5.750022 3 2 ack 40 ------- 1 4.0 0.0 4 17
r 5.750026 4 3 ack 40 ------- 1 4.0 0.0 5 18
+ 5.750026 3 2 ack 40 ------- 1 4.0 0.0 5 18
- 5.750026 3 2 ack 40 ------- 1 4.0 0.0 5 18
r 5.75003 4 3 ack 40 ------- 1 4.0 0.0 6 19
+ 5.75003 3 2 ack 40 ------- 1 4.0 0.0 6 19
- 5.75003 3 2 ack 40 ------- 1 4.0 0.0 6 19
r 5.800009 3 2 ack 40 ------- 2 5.0 1.0 1 15
+ 5.800009 2 1 ack 40 ------- 2 5.0 1.0 1 15
- 5.800009 2 1 ack 40 ------- 2 5.0 1.0 1 15
r 5.800018 3 2 ack 40 ------- 1 4.0 0.0 3 16
+ 5.800018 2 0 ack 40 ------- 1 4.0 0.0 3 16
- 5.800018 2 0 ack 40 ------- 1 4.0 0.0 3 16
r 5.800022 3 2 ack 40 ------- 1 4.0 0.0 4 17
+ 5.800022 2 0 ack 40 ------- 1 4.0 0.0 4 17
- 5.800022 2 0 ack 40 ------- 1 4.0 0.0 4 17
r 5.800026 3 2 ack 40 ------- 1 4.0 0.0 5 18
+ 5.800026 2 0 ack 40 ------- 1 4.0 0.0 5 18
- 5.800026 2 0 ack 40 ------- 1 4.0 0.0 5 18
r 5.80003 3 2 ack 40 ------- 1 4.0 0.0 6 19
+ 5.80003 2 0 ack 40 ------- 1 4.0 0.0 6 19
- 5.80003 2 0 ack 40 ------- 1 4.0 0.0 6 19
r 6.300001 2 1 ack 40 ------- 2 5.0 1.0 0 14
+ 6.300001 1 2 tcp 1040 ------- 2 1.0 5.0 2 20
- 6.300001 1 2 tcp 1040 ------- 2 1.0 5.0 2 20
6.30000  1  0  5  0  maxseq_ 2
r 6.300018 2 0 ack 40 ------- 1 4.0 0.0 3 16
6.30002  0  0  4  0  ack_ 3
6.30002  0  0  4  0  cwnd_ 5.000 
+ 6.300018 0 2 tcp 1040 ------- 1 0.0 4.0 7 21
- 6.300018 0 2 tcp 1040 ------- 1 0.0 4.0 7 21
6.30002  0  0  4  0  maxseq_ 7
+ 6.300018 0 2 tcp 1040 ------- 1 0.0 4.0 8 22
6.30002  0  0  4  0  maxseq_ 8
- 6.30002 0 2 tcp 1040 ------- 1 0.0 4.0 8 22
r 6.300022 2 0 ack 40 ------- 1 4.0 0.0 4 17
6.30002  0  0  4  0  ack_ 4
6.30002  0  0  4  0  cwnd_ 6.000 
+ 6.300022 0 2 tcp 1040 ------- 1 0.0 4.0 9 23
6.30002  0  0  4  0  maxseq_ 9
+ 6.300022 0 2 tcp 1040 ------- 1 0.0 4.0 10 24
6.30002  0  0  4  0  maxseq_ 10
- 6.300022 0 2 tcp 1040 ------- 1 0.0 4.0 9 23
- 6.300024 0 2 tcp 1040 ------- 1 0.0 4.0 10 24
r 6.300026 2 0 ack 40 ------- 1 4.0 0.0 5 18
6.30003  0  0  4  0  ack_ 5
6.30003  0  0  4  0  cwnd_ 7.000 
+ 6.300026 0 2 tcp 1040 ------- 1 0.0 4.0 11 25
6.30003  0  0  4  0  maxseq_ 11
+ 6.300026 0 2 tcp 1040 ------- 1 0.0 4.0 12 26
6.30003  0  0  4  0  maxseq_ 12
- 6.300026 0 2 tcp 1040 ------- 1 0.0 4.0 11 25
- 6.300028 0 2 tcp 1040 ------- 1 0.0 4.0 12 26
r 6.30003 2 0 ack 40 ------- 1 4.0 0.0 6 19
6.30003  0  0  4  0  ack_ 6
6.30003  0  0  4  0  cwnd_ 8.000 
+ 6.30003 0 2 tcp 1040 ------- 1 0.0 4.0 13 27
6.30003  0  0  4  0  maxseq_ 13
+ 6.30003 0 2 tcp 1040 ------- 1 0.0 4.0 14 28
6.30003  0  0  4  0  maxseq_ 14
- 6.30003 0 2 tcp 1040 ------- 1 0.0 4.0 13 27
- 6.300032 0 2 tcp 1040 ------- 1 0.0 4.0 14 28
r 6.600009 2 1 ack 40 ------- 2 5.0 1.0 1 15
6.60001  1  0  5  0  ack_ 1
6.60001  1  0  5  0  rtt_ 3.300 
6.60001  1  0  5  0  cwnd_ 2.000 
+ 6.600009 1 2 tcp 1040 ------- 2 1.0 5.0 3 29
- 6.600009 1 2 tcp 1040 ------- 2 1.0 5.0 3 29
6.60001  1  0  5  0  maxseq_ 3
r 6.80002 0 2 tcp 1040 ------- 1 0.0 4.0 7 21
+ 6.80002 2 3 tcp 1040 ------- 1 0.0 4.0 7 21
- 6.80002 2 3 tcp 1040 ------- 1 0.0 4.0 7 21
r 6.800022 0 2 tcp 1040 ------- 1 0.0 4.0 8 22
+ 6.800022 2 3 tcp 1040 ------- 1 0.0 4.0 8 22
r 6.800024 0 2 tcp 1040 ------- 1 0.0 4.0 9 23
+ 6.800024 2 3 tcp 1040 ------- 1 0.0 4.0 9 23
- 6.800024 2 3 tcp 1040 ------- 1 0.0 4.0 8 22
r 6.800026 0 2 tcp 1040 ------- 1 0.0 4.0 10 24
+ 6.800026 2 3 tcp 1040 ------- 1 0.0 4.0 10 24
r 6.800028 0 2 tcp 1040 ------- 1 0.0 4.0 11 25
+ 6.800028 2 3 tcp 1040 ------- 1 0.0 4.0 11 25
- 6.800028 2 3 tcp 1040 ------- 1 0.0 4.0 9 23
r 6.80003 0 2 tcp 1040 ------- 1 0.0 4.0 12 26
+ 6.80003 2 3 tcp 1040 ------- 1 0.0 4.0 12 26
r 6.800032 0 2 tcp 1040 ------- 1 0.0 4.0 13 27
+ 6.800032 2 3 tcp 1040 ------- 1 0.0 4.0 13 27
- 6.800032 2 3 tcp 1040 ------- 1 0.0 4.0 10 24
r 6.800035 0 2 tcp 1040 ------- 1 0.0 4.0 14 28
+ 6.800035 2 3 tcp 1040 ------- 1 0.0 4.0 14 28
- 6.800037 2 3 tcp 1040 ------- 1 0.0 4.0 11 25
- 6.800041 2 3 tcp 1040 ------- 1 0.0 4.0 12 26
- 6.800045 2 3 tcp 1040 ------- 1 0.0 4.0 13 27
- 6.800049 2 3 tcp 1040 ------- 1 0.0 4.0 14 28
r 6.850024 2 3 tcp 1040 ------- 1 0.0 4.0 7 21
+ 6.850024 3 4 tcp 1040 ------- 1 0.0 4.0 7 21
- 6.850024 3 4 tcp 1040 ------- 1 0.0 4.0 7 21
r 6.850028 2 3 tcp 1040 ------- 1 0.0 4.0 8 22
+ 6.850028 3 4 tcp 1040 ------- 1 0.0 4.0 8 22
- 6.850028 3 4 tcp 1040 ------- 1 0.0 4.0 8 22
r 6.850032 2 3 tcp 1040 ------- 1 0.0 4.0 9 23
+ 6.850032 3 4 tcp 1040 ------- 1 0.0 4.0 9 23
- 6.850032 3 4 tcp 1040 ------- 1 0.0 4.0 9 23
r 6.850037 2 3 tcp 1040 ------- 1 0.0 4.0 10 24
+ 6.850037 3 4 tcp 1040 ------- 1 0.0 4.0 10 24
- 6.850037 3 4 tcp 1040 ------- 1 0.0 4.0 10 24
r 6.850041 2 3 tcp 1040 ------- 1 0.0 4.0 11 25
+ 6.850041 3 4 tcp 1040 ------- 1 0.0 4.0 11 25
- 6.850041 3 4 tcp 1040 ------- 1 0.0 4.0 11 25
r 6.850045 2 3 tcp 1040 ------- 1 0.0 4.0 12 26
+ 6.850045 3 4 tcp 1040 ------- 1 0.0 4.0 12 26
- 6.850045 3 4 tcp 1040 ------- 1 0.0 4.0 12 26
r 6.850049 2 3 tcp 1040 ------- 1 0.0 4.0 13 27
+ 6.850049 3 4 tcp 1040 ------- 1 0.0 4.0 13 27
- 6.850049 3 4 tcp 1040 ------- 1 0.0 4.0 13 27
r 6.850053 2 3 tcp 1040 ------- 1 0.0 4.0 14 28
+ 6.850053 3 4 tcp 1040 ------- 1 0.0 4.0 14 28
- 6.850053 3 4 tcp 1040 ------- 1 0.0 4.0 14 28
r 7.100003 1 2 tcp 1040 ------- 2 1.0 5.0 2 20
+ 7.100003 2 3 tcp 1040 ------- 2 1.0 5.0 2 20
- 7.100003 2 3 tcp 1040 ------- 2 1.0 5.0 2 20
r 7.150007 2 3 tcp 1040 ------- 2 1.0 5.0 2 20
+ 7.150007 3 5 tcp 1040 ------- 2 1.0 5.0 2 20
- 7.150007 3 5 tcp 1040 ------- 2 1.0 5.0 2 20
r 7.350026 3 4 tcp 1040 ------- 1 0.0 4.0 7 21
+ 7.350026 4 3 ack 40 ------- 1 4.0 0.0 7 30
- 7.350026 4 3 ack 40 ------- 1 4.0 0.0 7 30
r 7.35003 3 4 tcp 1040 ------- 1 0.0 4.0 8 22
+ 7.35003 4 3 ack 40 ------- 1 4.0 0.0 8 31
- 7.35003 4 3 ack 40 ------- 1 4.0 0.0 8 31
r 7.350035 3 4 tcp 1040 ------- 1 0.0 4.0 9 23
+ 7.350035 4 3 ack 40 ------- 1 4.0 0.0 9 32
- 7.350035 4 3 ack 40 ------- 1 4.0 0.0 9 32
r 7.350039 3 4 tcp 1040 ------- 1 0.0 4.0 10 24
+ 7.350039 4 3 ack 40 ------- 1 4.0 0.0 10 33
- 7.350039 4 3 ack 40 ------- 1 4.0 0.0 10 33
r 7.350043 3 4 tcp 1040 ------- 1 0.0 4.0 11 25
+ 7.350043 4 3 ack 40 ------- 1 4.0 0.0 11 34
- 7.350043 4 3 ack 40 ------- 1 4.0 0.0 11 34
r 7.350047 3 4 tcp 1040 ------- 1 0.0 4.0 12 26
+ 7.350047 4 3 ack 40 ------- 1 4.0 0.0 12 35
- 7.350047 4 3 ack 40 ------- 1 4.0 0.0 12 35
r 7.350051 3 4 tcp 1040 ------- 1 0.0 4.0 13 27
+ 7.350051 4 3 ack 40 ------- 1 4.0 0.0 13 36
- 7.350051 4 3 ack 40 ------- 1 4.0 0.0 13 36
r 7.350055 3 4 tcp 1040 ------- 1 0.0 4.0 14 28
+ 7.350055 4 3 ack 40 ------- 1 4.0 0.0 14 37
- 7.350055 4 3 ack 40 ------- 1 4.0 0.0 14 37
r 7.400011 1 2 tcp 1040 ------- 2 1.0 5.0 3 29
+ 7.400011 2 3 tcp 1040 ------- 2 1.0 5.0 3 29
- 7.400011 2 3 tcp 1040 ------- 2 1.0 5.0 3 29
r 7.450016 2 3 tcp 1040 ------- 2 1.0 5.0 3 29
+ 7.450016 3 5 tcp 1040 ------- 2 1.0 5.0 3 29
- 7.450016 3 5 tcp 1040 ------- 2 1.0 5.0 3 29
r 7.850026 4 3 ack 40 ------- 1 4.0 0.0 7 30
+ 7.850026 3 2 ack 40 ------- 1 4.0 0.0 7 30
- 7.850026 3 2 ack 40 ------- 1 4.0 0.0 7 30
r 7.85003 4 3 ack 40 ------- 1 4.0 0.0 8 31
+ 7.85003 3 2 ack 40 ------- 1 4.0 0.0 8 31
- 7.85003 3 2 ack 40 ------- 1 4.0 0.0 8 31
r 7.850035 4 3 ack 40 ------- 1 4.0 0.0 9 32
+ 7.850035 3 2 ack 40 ------- 1 4.0 0.0 9 32
- 7.850035 3 2 ack 40 ------- 1 4.0 0.0 9 32
r 7.850039 4 3 ack 40 ------- 1 4.0 0.0 10 33
+ 7.850039 3 2 ack 40 ------- 1 4.0 0.0 10 33
- 7.850039 3 2 ack 40 ------- 1 4.0 0.0 10 33
r 7.850043 4 3 ack 40 ------- 1 4.0 0.0 11 34
+ 7.850043 3 2 ack 40 ------- 1 4.0 0.0 11 34
- 7.850043 3 2 ack 40 ------- 1 4.0 0.0 11 34
r 7.850047 4 3 ack 40 ------- 1 4.0 0.0 12 35
+ 7.850047 3 2 ack 40 ------- 1 4.0 0.0 12 35
- 7.850047 3 2 ack 40 ------- 1 4.0 0.0 12 35
r 7.850051 4 3 ack 40 ------- 1 4.0 0.0 13 36
+ 7.850051 3 2 ack 40 ------- 1 4.0 0.0 13 36
- 7.850051 3 2 ack 40 ------- 1 4.0 0.0 13 36
r 7.850055 4 3 ack 40 ------- 1 4.0 0.0 14 37
+ 7.850055 3 2 ack 40 ------- 1 4.0 0.0 14 37
- 7.850055 3 2 ack 40 ------- 1 4.0 0.0 14 37
r 7.900026 3 2 ack 40 ------- 1 4.0 0.0 7 30
+ 7.900026 2 0 ack 40 ------- 1 4.0 0.0 7 30
- 7.900026 2 0 ack 40 ------- 1 4.0 0.0 7 30
r 7.900031 3 2 ack 40 ------- 1 4.0 0.0 8 31
+ 7.900031 2 0 ack 40 ------- 1 4.0 0.0 8 31
- 7.900031 2 0 ack 40 ------- 1 4.0 0.0 8 31
r 7.900035 3 2 ack 40 ------- 1 4.0 0.0 9 32
+ 7.900035 2 0 ack 40 ------- 1 4.0 0.0 9 32
- 7.900035 2 0 ack 40 ------- 1 4.0 0.0 9 32
r 7.900039 3 2 ack 40 ------- 1 4.0 0.0 10 33
+ 7.900039 2 0 ack 40 ------- 1 4.0 0.0 10 33
- 7.900039 2 0 ack 40 ------- 1 4.0 0.0 10 33
r 7.900043 3 2 ack 40 ------- 1 4.0 0.0 11 34
+ 7.900043 2 0 ack 40 ------- 1 4.0 0.0 11 34
- 7.900043 2 0 ack 40 ------- 1 4.0 0.0 11 34
r 7.900047 3 2 ack 40 ------- 1 4.0 0.0 12 35
+ 7.900047 2 0 ack 40 ------- 1 4.0 0.0 12 35
- 7.900047 2 0 ack 40 ------- 1 4.0 0.0 12 35
r 7.900051 3 2 ack 40 ------- 1 4.0 0.0 13 36
+ 7.900051 2 0 ack 40 ------- 1 4.0 0.0 13 36
- 7.900051 2 0 ack 40 ------- 1 4.0 0.0 13 36
r 7.900056 3 2 ack 40 ------- 1 4.0 0.0 14 37
+ 7.900056 2 0 ack 40 ------- 1 4.0 0.0 14 37
- 7.900056 2 0 ack 40 ------- 1 4.0 0.0 14 37
r 7.950009 3 5 tcp 1040 ------- 2 1.0 5.0 2 20
+ 7.950009 5 3 ack 40 ------- 2 5.0 1.0 2 38
- 7.950009 5 3 ack 40 ------- 2 5.0 1.0 2 38
r 8.250018 3 5 tcp 1040 ------- 2 1.0 5.0 3 29
+ 8.250018 5 3 ack 40 ------- 2 5.0 1.0 3 39
- 8.250018 5 3 ack 40 ------- 2 5.0 1.0 3 39
r 8.400027 2 0 ack 40 ------- 1 4.0 0.0 7 30
8.40003  0  0  4  0  ack_ 7
8.40003  0  0  4  0  cwnd_ 9.000 
+ 8.400027 0 2 tcp 1040 ------- 1 0.0 4.0 15 40
- 8.400027 0 2 tcp 1040 ------- 1 0.0 4.0 15 40
8.40003  0  0  4  0  maxseq_ 15
+ 8.400027 0 2 tcp 1040 ------- 1 0.0 4.0 16 41
8.40003  0  0  4  0  maxseq_ 16
- 8.400029 0 2 tcp 1040 ------- 1 0.0 4.0 16 41
r 8.400031 2 0 ack 40 ------- 1 4.0 0.0 8 31
8.40003  0  0  4  0  ack_ 8
8.40003  0  0  4  0  cwnd_ 10.000
+ 8.400031 0 2 tcp 1040 ------- 1 0.0 4.0 17 42
8.40003  0  0  4  0  maxseq_ 17
+ 8.400031 0 2 tcp 1040 ------- 1 0.0 4.0 18 43
8.40003  0  0  4  0  maxseq_ 18
- 8.400031 0 2 tcp 1040 ------- 1 0.0 4.0 17 42
- 8.400033 0 2 tcp 1040 ------- 1 0.0 4.0 18 43
r 8.400035 2 0 ack 40 ------- 1 4.0 0.0 9 32
8.40003  0  0  4  0  ack_ 9
8.40003  0  0  4  0  cwnd_ 11.000
+ 8.400035 0 2 tcp 1040 ------- 1 0.0 4.0 19 44
8.40003  0  0  4  0  maxseq_ 19
+ 8.400035 0 2 tcp 1040 ------- 1 0.0 4.0 20 45
8.40003  0  0  4  0  maxseq_ 20
- 8.400035 0 2 tcp 1040 ------- 1 0.0 4.0 19 44
- 8.400037 0 2 tcp 1040 ------- 1 0.0 4.0 20 45
r 8.400039 2 0 ack 40 ------- 1 4.0 0.0 10 33
8.40004  0  0  4  0  ack_ 10
8.40004  0  0  4  0  cwnd_ 12.000
+ 8.400039 0 2 tcp 1040 ------- 1 0.0 4.0 21 46
8.40004  0  0  4  0  maxseq_ 21
+ 8.400039 0 2 tcp 1040 ------- 1 0.0 4.0 22 47
8.40004  0  0  4  0  maxseq_ 22
- 8.400039 0 2 tcp 1040 ------- 1 0.0 4.0 21 46
- 8.400041 0 2 tcp 1040 ------- 1 0.0 4.0 22 47
r 8.400043 2 0 ack 40 ------- 1 4.0 0.0 11 34
8.40004  0  0  4  0  ack_ 11
8.40004  0  0  4  0  cwnd_ 13.000
+ 8.400043 0 2 tcp 1040 ------- 1 0.0 4.0 23 48
8.40004  0  0  4  0  maxseq_ 23
+ 8.400043 0 2 tcp 1040 ------- 1 0.0 4.0 24 49
8.40004  0  0  4  0  maxseq_ 24
- 8.400043 0 2 tcp 1040 ------- 1 0.0 4.0 23 48
- 8.400045 0 2 tcp 1040 ------- 1 0.0 4.0 24 49
r 8.400047 2 0 ack 40 ------- 1 4.0 0.0 12 35
8.40005  0  0  4  0  ack_ 12
8.40005  0  0  4  0  cwnd_ 14.000
+ 8.400047 0 2 tcp 1040 ------- 1 0.0 4.0 25 50
8.40005  0  0  4  0  maxseq_ 25
+ 8.400047 0 2 tcp 1040 ------- 1 0.0 4.0 26 51
8.40005  0  0  4  0  maxseq_ 26
- 8.400047 0 2 tcp 1040 ------- 1 0.0 4.0 25 50
- 8.400049 0 2 tcp 1040 ------- 1 0.0 4.0 26 51
r 8.400052 2 0 ack 40 ------- 1 4.0 0.0 13 36
8.40005  0  0  4  0  ack_ 13
8.40005  0  0  4  0  cwnd_ 15.000
+ 8.400052 0 2 tcp 1040 ------- 1 0.0 4.0 27 52
8.40005  0  0  4  0  maxseq_ 27
+ 8.400052 0 2 tcp 1040 ------- 1 0.0 4.0 28 53
8.40005  0  0  4  0  maxseq_ 28
- 8.400052 0 2 tcp 1040 ------- 1 0.0 4.0 27 52
- 8.400054 0 2 tcp 1040 ------- 1 0.0 4.0 28 53
r 8.400056 2 0 ack 40 ------- 1 4.0 0.0 14 37
8.40006  0  0  4  0  ack_ 14
8.40006  0  0  4  0  cwnd_ 16.000
+ 8.400056 0 2 tcp 1040 ------- 1 0.0 4.0 29 54
8.40006  0  0  4  0  maxseq_ 29
+ 8.400056 0 2 tcp 1040 ------- 1 0.0 4.0 30 55
8.40006  0  0  4  0  maxseq_ 30
- 8.400056 0 2 tcp 1040 ------- 1 0.0 4.0 29 54
- 8.400058 0 2 tcp 1040 ------- 1 0.0 4.0 30 55
r 8.750009 5 3 ack 40 ------- 2 5.0 1.0 2 38
+ 8.750009 3 2 ack 40 ------- 2 5.0 1.0 2 38
- 8.750009 3 2 ack 40 ------- 2 5.0 1.0 2 38
r 8.800009 3 2 ack 40 ------- 2 5.0 1.0 2 38
+ 8.800009 2 1 ack 40 ------- 2 5.0 1.0 2 38
- 8.800009 2 1 ack 40 ------- 2 5.0 1.0 2 38
r 8.900029 0 2 tcp 1040 ------- 1 0.0 4.0 15 40
+ 8.900029 2 3 tcp 1040 ------- 1 0.0 4.0 15 40
- 8.900029 2 3 tcp 1040 ------- 1 0.0 4.0 15 40
r 8.900031 0 2 tcp 1040 ------- 1 0.0 4.0 16 41
+ 8.900031 2 3 tcp 1040 ------- 1 0.0 4.0 16 41
r 8.900033 0 2 tcp 1040 ------- 1 0.0 4.0 17 42
+ 8.900033 2 3 tcp 1040 ------- 1 0.0 4.0 17 42
- 8.900033 2 3 tcp 1040 ------- 1 0.0 4.0 16 41
r 8.900035 0 2 tcp 1040 ------- 1 0.0 4.0 18 43
+ 8.900035 2 3 tcp 1040 ------- 1 0.0 4.0 18 43
r 8.900037 0 2 tcp 1040 ------- 1 0.0 4.0 19 44
+ 8.900037 2 3 tcp 1040 ------- 1 0.0 4.0 19 44
- 8.900037 2 3 tcp 1040 ------- 1 0.0 4.0 17 42
r 8.900039 0 2 tcp 1040 ------- 1 0.0 4.0 20 45
+ 8.900039 2 3 tcp 1040 ------- 1 0.0 4.0 20 45
r 8.900041 0 2 tcp 1040 ------- 1 0.0 4.0 21 46
+ 8.900041 2 3 tcp 1040 ------- 1 0.0 4.0 21 46
- 8.900041 2 3 tcp 1040 ------- 1 0.0 4.0 18 43
r 8.900043 0 2 tcp 1040 ------- 1 0.0 4.0 22 47
+ 8.900043 2 3 tcp 1040 ------- 1 0.0 4.0 22 47
r 8.900045 0 2 tcp 1040 ------- 1 0.0 4.0 23 48
+ 8.900045 2 3 tcp 1040 ------- 1 0.0 4.0 23 48
- 8.900045 2 3 tcp 1040 ------- 1 0.0 4.0 19 44
r 8.900047 0 2 tcp 1040 ------- 1 0.0 4.0 24 49
+ 8.900047 2 3 tcp 1040 ------- 1 0.0 4.0 24 49
r 8.900049 0 2 tcp 1040 ------- 1 0.0 4.0 25 50
+ 8.900049 2 3 tcp 1040 ------- 1 0.0 4.0 25 50
d 8.900049 2 3 tcp 1040 ------- 1 0.0 4.0 25 50
- 8.900049 2 3 tcp 1040 ------- 1 0.0 4.0 20 45
r 8.900052 0 2 tcp 1040 ------- 1 0.0 4.0 26 51
+ 8.900052 2 3 tcp 1040 ------- 1 0.0 4.0 26 51
r 8.900054 0 2 tcp 1040 ------- 1 0.0 4.0 27 52
+ 8.900054 2 3 tcp 1040 ------- 1 0.0 4.0 27 52
d 8.900054 2 3 tcp 1040 ------- 1 0.0 4.0 27 52
- 8.900054 2 3 tcp 1040 ------- 1 0.0 4.0 21 46
r 8.900056 0 2 tcp 1040 ------- 1 0.0 4.0 28 53
+ 8.900056 2 3 tcp 1040 ------- 1 0.0 4.0 28 53
r 8.900058 0 2 tcp 1040 ------- 1 0.0 4.0 29 54
+ 8.900058 2 3 tcp 1040 ------- 1 0.0 4.0 29 54
d 8.900058 2 3 tcp 1040 ------- 1 0.0 4.0 29 54
- 8.900058 2 3 tcp 1040 ------- 1 0.0 4.0 22 47
r 8.90006 0 2 tcp 1040 ------- 1 0.0 4.0 30 55
+ 8.90006 2 3 tcp 1040 ------- 1 0.0 4.0 30 55
- 8.900062 2 3 tcp 1040 ------- 1 0.0 4.0 23 48
- 8.900066 2 3 tcp 1040 ------- 1 0.0 4.0 24 49
- 8.90007 2 3 tcp 1040 ------- 1 0.0 4.0 26 51
- 8.900074 2 3 tcp 1040 ------- 1 0.0 4.0 28 53
- 8.900079 2 3 tcp 1040 ------- 1 0.0 4.0 30 55
r 8.950033 2 3 tcp 1040 ------- 1 0.0 4.0 15 40
+ 8.950033 3 4 tcp 1040 ------- 1 0.0 4.0 15 40
- 8.950033 3 4 tcp 1040 ------- 1 0.0 4.0 15 40
r 8.950037 2 3 tcp 1040 ------- 1 0.0 4.0 16 41
+ 8.950037 3 4 tcp 1040 ------- 1 0.0 4.0 16 41
- 8.950037 3 4 tcp 1040 ------- 1 0.0 4.0 16 41
r 8.950041 2 3 tcp 1040 ------- 1 0.0 4.0 17 42
+ 8.950041 3 4 tcp 1040 ------- 1 0.0 4.0 17 42
- 8.950041 3 4 tcp 1040 ------- 1 0.0 4.0 17 42
r 8.950045 2 3 tcp 1040 ------- 1 0.0 4.0 18 43
+ 8.950045 3 4 tcp 1040 ------- 1 0.0 4.0 18 43
- 8.950045 3 4 tcp 1040 ------- 1 0.0 4.0 18 43
r 8.950049 2 3 tcp 1040 ------- 1 0.0 4.0 19 44
+ 8.950049 3 4 tcp 1040 ------- 1 0.0 4.0 19 44
- 8.950049 3 4 tcp 1040 ------- 1 0.0 4.0 19 44
r 8.950054 2 3 tcp 1040 ------- 1 0.0 4.0 20 45
+ 8.950054 3 4 tcp 1040 ------- 1 0.0 4.0 20 45
- 8.950054 3 4 tcp 1040 ------- 1 0.0 4.0 20 45
r 8.950058 2 3 tcp 1040 ------- 1 0.0 4.0 21 46
+ 8.950058 3 4 tcp 1040 ------- 1 0.0 4.0 21 46
- 8.950058 3 4 tcp 1040 ------- 1 0.0 4.0 21 46
r 8.950062 2 3 tcp 1040 ------- 1 0.0 4.0 22 47
+ 8.950062 3 4 tcp 1040 ------- 1 0.0 4.0 22 47
- 8.950062 3 4 tcp 1040 ------- 1 0.0 4.0 22 47
r 8.950066 2 3 tcp 1040 ------- 1 0.0 4.0 23 48
+ 8.950066 3 4 tcp 1040 ------- 1 0.0 4.0 23 48
- 8.950066 3 4 tcp 1040 ------- 1 0.0 4.0 23 48
r 8.95007 2 3 tcp 1040 ------- 1 0.0 4.0 24 49
+ 8.95007 3 4 tcp 1040 ------- 1 0.0 4.0 24 49
- 8.95007 3 4 tcp 1040 ------- 1 0.0 4.0 24 49
r 8.950074 2 3 tcp 1040 ------- 1 0.0 4.0 26 51
+ 8.950074 3 4 tcp 1040 ------- 1 0.0 4.0 26 51
- 8.950074 3 4 tcp 1040 ------- 1 0.0 4.0 26 51
r 8.950079 2 3 tcp 1040 ------- 1 0.0 4.0 28 53
+ 8.950079 3 4 tcp 1040 ------- 1 0.0 4.0 28 53
- 8.950079 3 4 tcp 1040 ------- 1 0.0 4.0 28 53
r 8.950083 2 3 tcp 1040 ------- 1 0.0 4.0 30 55
+ 8.950083 3 4 tcp 1040 ------- 1 0.0 4.0 30 55
- 8.950083 3 4 tcp 1040 ------- 1 0.0 4.0 30 55
r 9.050018 5 3 ack 40 ------- 2 5.0 1.0 3 39
+ 9.050018 3 2 ack 40 ------- 2 5.0 1.0 3 39
- 9.050018 3 2 ack 40 ------- 2 5.0 1.0 3 39
r 9.100018 3 2 ack 40 ------- 2 5.0 1.0 3 39
+ 9.100018 2 1 ack 40 ------- 2 5.0 1.0 3 39
- 9.100018 2 1 ack 40 ------- 2 5.0 1.0 3 39
r 9.450035 3 4 tcp 1040 ------- 1 0.0 4.0 15 40
+ 9.450035 4 3 ack 40 ------- 1 4.0 0.0 15 56
- 9.450035 4 3 ack 40 ------- 1 4.0 0.0 15 56
r 9.450039 3 4 tcp 1040 ------- 1 0.0 4.0 16 41
+ 9.450039 4 3 ack 40 ------- 1 4.0 0.0 16 57
- 9.450039 4 3 ack 40 ------- 1 4.0 0.0 16 57
r 9.450043 3 4 tcp 1040 ------- 1 0.0 4.0 17 42
+ 9.450043 4 3 ack 40 ------- 1 4.0 0.0 17 58
- 9.450043 4 3 ack 40 ------- 1 4.0 0.0 17 58
r 9.450047 3 4 tcp 1040 ------- 1 0.0 4.0 18 43
+ 9.450047 4 3 ack 40 ------- 1 4.0 0.0 18 59
- 9.450047 4 3 ack 40 ------- 1 4.0 0.0 18 59
r 9.450052 3 4 tcp 1040 ------- 1 0.0 4.0 19 44
+ 9.450052 4 3 ack 40 ------- 1 4.0 0.0 19 60
- 9.450052 4 3 ack 40 ------- 1 4.0 0.0 19 60
r 9.450056 3 4 tcp 1040 ------- 1 0.0 4.0 20 45
+ 9.450056 4 3 ack 40 ------- 1 4.0 0.0 20 61
- 9.450056 4 3 ack 40 ------- 1 4.0 0.0 20 61
r 9.45006 3 4 tcp 1040 ------- 1 0.0 4.0 21 46
+ 9.45006 4 3 ack 40 ------- 1 4.0 0.0 21 62
- 9.45006 4 3 ack 40 ------- 1 4.0 0.0 21 62
r 9.450064 3 4 tcp 1040 ------- 1 0.0 4.0 22 47
+ 9.450064 4 3 ack 40 ------- 1 4.0 0.0 22 63
- 9.450064 4 3 ack 40 ------- 1 4.0 0.0 22 63
r 9.450068 3 4 tcp 1040 ------- 1 0.0 4.0 23 48
+ 9.450068 4 3 ack 40 ------- 1 4.0 0.0 23 64
- 9.450068 4 3 ack 40 ------- 1 4.0 0.0 23 64
r 9.450072 3 4 tcp 1040 ------- 1 0.0 4.0 24 49
+ 9.450072 4 3 ack 40 ------- 1 4.0 0.0 24 65
- 9.450072 4 3 ack 40 ------- 1 4.0 0.0 24 65
r 9.450076 3 4 tcp 1040 ------- 1 0.0 4.0 26 51
+ 9.450076 4 3 ack 40 ------- 1 4.0 0.0 24 66
- 9.450076 4 3 ack 40 ------- 1 4.0 0.0 24 66
r 9.450081 3 4 tcp 1040 ------- 1 0.0 4.0 28 53
+ 9.450081 4 3 ack 40 ------- 1 4.0 0.0 24 67
- 9.450081 4 3 ack 40 ------- 1 4.0 0.0 24 67
r 9.450085 3 4 tcp 1040 ------- 1 0.0 4.0 30 55
+ 9.450085 4 3 ack 40 ------- 1 4.0 0.0 24 68
- 9.450085 4 3 ack 40 ------- 1 4.0 0.0 24 68
r 9.600009 2 1 ack 40 ------- 2 5.0 1.0 2 38
9.60001  1  0  5  0  ack_ 2
9.60001  1  0  5  0  cwnd_ 2.500 
+ 9.600009 1 2 tcp 1040 ------- 2 1.0 5.0 4 69
- 9.600009 1 2 tcp 1040 ------- 2 1.0 5.0 4 69
9.60001  1  0  5  0  maxseq_ 4
r 9.900018 2 1 ack 40 ------- 2 5.0 1.0 3 39
9.90002  1  0  5  0  ack_ 3
9.90002  1  0  5  0  cwnd_ 2.900 
+ 9.900018 1 2 tcp 1040 ------- 2 1.0 5.0 5 70
- 9.900018 1 2 tcp 1040 ------- 2 1.0 5.0 5 70
9.90002  1  0  5  0  maxseq_ 5
r 9.950035 4 3 ack 40 ------- 1 4.0 0.0 15 56
+ 9.950035 3 2 ack 40 ------- 1 4.0 0.0 15 56
- 9.950035 3 2 ack 40 ------- 1 4.0 0.0 15 56
r 9.950039 4 3 ack 40 ------- 1 4.0 0.0 16 57
+ 9.950039 3 2 ack 40 ------- 1 4.0 0.0 16 57
- 9.950039 3 2 ack 40 ------- 1 4.0 0.0 16 57
r 9.950043 4 3 ack 40 ------- 1 4.0 0.0 17 58
+ 9.950043 3 2 ack 40 ------- 1 4.0 0.0 17 58
- 9.950043 3 2 ack 40 ------- 1 4.0 0.0 17 58
r 9.950047 4 3 ack 40 ------- 1 4.0 0.0 18 59
+ 9.950047 3 2 ack 40 ------- 1 4.0 0.0 18 59
- 9.950047 3 2 ack 40 ------- 1 4.0 0.0 18 59
r 9.950052 4 3 ack 40 ------- 1 4.0 0.0 19 60
+ 9.950052 3 2 ack 40 ------- 1 4.0 0.0 19 60
- 9.950052 3 2 ack 40 ------- 1 4.0 0.0 19 60
r 9.950056 4 3 ack 40 ------- 1 4.0 0.0 20 61
+ 9.950056 3 2 ack 40 ------- 1 4.0 0.0 20 61
- 9.950056 3 2 ack 40 ------- 1 4.0 0.0 20 61
r 9.95006 4 3 ack 40 ------- 1 4.0 0.0 21 62
+ 9.95006 3 2 ack 40 ------- 1 4.0 0.0 21 62
- 9.95006 3 2 ack 40 ------- 1 4.0 0.0 21 62
r 9.950064 4 3 ack 40 ------- 1 4.0 0.0 22 63
+ 9.950064 3 2 ack 40 ------- 1 4.0 0.0 22 63
- 9.950064 3 2 ack 40 ------- 1 4.0 0.0 22 63
r 9.950068 4 3 ack 40 ------- 1 4.0 0.0 23 64
+ 9.950068 3 2 ack 40 ------- 1 4.0 0.0 23 64
- 9.950068 3 2 ack 40 ------- 1 4.0 0.0 23 64
r 9.950072 4 3 ack 40 ------- 1 4.0 0.0 24 65
+ 9.950072 3 2 ack 40 ------- 1 4.0 0.0 24 65
- 9.950072 3 2 ack 40 ------- 1 4.0 0.0 24 65
r 9.950077 4 3 ack 40 ------- 1 4.0 0.0 24 66
+ 9.950077 3 2 ack 40 ------- 1 4.0 0.0 24 66
- 9.950077 3 2 ack 40 ------- 1 4.0 0.0 24 66
r 9.950081 4 3 ack 40 ------- 1 4.0 0.0 24 67
+ 9.950081 3 2 ack 40 ------- 1 4.0 0.0 24 67
- 9.950081 3 2 ack 40 ------- 1 4.0 0.0 24 67
r 9.950085 4 3 ack 40 ------- 1 4.0 0.0 24 68
+ 9.950085 3 2 ack 40 ------- 1 4.0 0.0 24 68
- 9.950085 3 2 ack 40 ------- 1 4.0 0.0 24 68
r 10.000035 3 2 ack 40 ------- 1 4.0 0.0 15 56
+ 10.000035 2 0 ack 40 ------- 1 4.0 0.0 15 56
- 10.000035 2 0 ack 40 ------- 1 4.0 0.0 15 56
r 10.000039 3 2 ack 40 ------- 1 4.0 0.0 16 57
+ 10.000039 2 0 ack 40 ------- 1 4.0 0.0 16 57
- 10.000039 2 0 ack 40 ------- 1 4.0 0.0 16 57
r 10.000043 3 2 ack 40 ------- 1 4.0 0.0 17 58
+ 10.000043 2 0 ack 40 ------- 1 4.0 0.0 17 58
- 10.000043 2 0 ack 40 ------- 1 4.0 0.0 17 58
r 10.000048 3 2 ack 40 ------- 1 4.0 0.0 18 59
+ 10.000048 2 0 ack 40 ------- 1 4.0 0.0 18 59
- 10.000048 2 0 ack 40 ------- 1 4.0 0.0 18 59
r 10.000052 3 2 ack 40 ------- 1 4.0 0.0 19 60
+ 10.000052 2 0 ack 40 ------- 1 4.0 0.0 19 60
- 10.000052 2 0 ack 40 ------- 1 4.0 0.0 19 60
r 10.000056 3 2 ack 40 ------- 1 4.0 0.0 20 61
+ 10.000056 2 0 ack 40 ------- 1 4.0 0.0 20 61
- 10.000056 2 0 ack 40 ------- 1 4.0 0.0 20 61
r 10.00006 3 2 ack 40 ------- 1 4.0 0.0 21 62
+ 10.00006 2 0 ack 40 ------- 1 4.0 0.0 21 62
- 10.00006 2 0 ack 40 ------- 1 4.0 0.0 21 62
r 10.000064 3 2 ack 40 ------- 1 4.0 0.0 22 63
+ 10.000064 2 0 ack 40 ------- 1 4.0 0.0 22 63
- 10.000064 2 0 ack 40 ------- 1 4.0 0.0 22 63
r 10.000068 3 2 ack 40 ------- 1 4.0 0.0 23 64
+ 10.000068 2 0 ack 40 ------- 1 4.0 0.0 23 64
- 10.000068 2 0 ack 40 ------- 1 4.0 0.0 23 64