0.00000  0  0  4  0  cwnd_ 1.000 
0.00000  0  0  4  0  ssthresh_ 20
0.00000  0  0  4  0  ack_ -1
0.00000  0  0  4  0  maxseq_ -1
0.00000  0  0  4  0  rtt_ 0.000 
0.00000  1  0  5  0  cwnd_ 1.000 
0.00000  1  0  5  0  ssthresh_ 20
0.00000  1  0  5  0  ack_ -1
0.00000  1  0  5  0  maxseq_ -1
0.00000  1  0  5  0  rtt_ 0.000 
0.00000  0  0  4  0  ssthresh_ 1000
0.00000  1  0  5  0  ssthresh_ 1000
+ 0 1 2 tcp 1000 ------- 2 1.0 5.0 0 0
- 0 1 2 tcp 1000 ------- 2 1.0 5.0 0 0
0.00000  1  0  5  0  maxseq_ 0
+ 0 0 2 tcp 1000 ------- 1 0.0 4.0 0 1
- 0 0 2 tcp 1000 ------- 1 0.0 4.0 0 1
0.00000  0  0  4  0  maxseq_ 0
r 0.500002 0 2 tcp 1000 ------- 1 0.0 4.0 0 1
+ 0.500002 2 3 tcp 1000 ------- 1 0.0 4.0 0 1
- 0.500002 2 3 tcp 1000 ------- 1 0.0 4.0 0 1
r 0.550006 2 3 tcp 1000 ------- 1 0.0 4.0 0 1
+ 0.550006 3 4 tcp 1000 ------- 1 0.0 4.0 0 1
- 0.550006 3 4 tcp 1000 ------- 1 0.0 4.0 0 1
r 0.800002 1 2 tcp 1000 ------- 2 1.0 5.0 0 0
+ 0.800002 2 3 tcp 1000 ------- 2 1.0 5.0 0 0
- 0.800002 2 3 tcp 1000 ------- 2 1.0 5.0 0 0
r 0.850006 2 3 tcp 1000 ------- 2 1.0 5.0 0 0
+ 0.850006 3 5 tcp 1000 ------- 2 1.0 5.0 0 0
- 0.850006 3 5 tcp 1000 ------- 2 1.0 5.0 0 0
r 1.050008 3 4 tcp 1000 ------- 1 0.0 4.0 0 1
+ 1.050008 4 3 ack 40 ------- 1 4.0 0.0 0 2
- 1.050008 4 3 ack 40 ------- 1 4.0 0.0 0 2
r 1.550008 4 3 ack 40 ------- 1 4.0 0.0 0 2
+ 1.550008 3 2 ack 40 ------- 1 4.0 0.0 0 2
- 1.550008 3 2 ack 40 ------- 1 4.0 0.0 0 2
r 1.600008 3 2 ack 40 ------- 1 4.0 0.0 0 2
+ 1.600008 2 0 ack 40 ------- 1 4.0 0.0 0 2
- 1.600008 2 0 ack 40 ------- 1 4.0 0.0 0 2
r 1.650008 3 5 tcp 1000 ------- 2 1.0 5.0 0 0
+ 1.650008 5 3 ack 40 ------- 2 5.0 1.0 0 3
- 1.650008 5 3 ack 40 ------- 2 5.0 1.0 0 3
r 2.100008 2 0 ack 40 ------- 1 4.0 0.0 0 2
2.10001  0  0  4  0  ack_ 0
2.10001  0  0  4  0  rtt_ 2.100 
+ 2.100008 0 2 tcp 1000 ------- 1 0.0 4.0 1 4
- 2.100008 0 2 tcp 1000 ------- 1 0.0 4.0 1 4
2.10001  0  0  4  0  maxseq_ 1
r 2.450008 5 3 ack 40 ------- 2 5.0 1.0 0 3
+ 2.450008 3 2 ack 40 ------- 2 5.0 1.0 0 3
- 2.450008 3 2 ack 40 ------- 2 5.0 1.0 0 3
r 2.500008 3 2 ack 40 ------- 2 5.0 1.0 0 3
+ 2.500008 2 1 ack 40 ------- 2 5.0 1.0 0 3
- 2.500008 2 1 ack 40 ------- 2 5.0 1.0 0 3
r 2.60001 0 2 tcp 1000 ------- 1 0.0 4.0 1 4
+ 2.60001 2 3 tcp 1000 ------- 1 0.0 4.0 1 4
- 2.60001 2 3 tcp 1000 ------- 1 0.0 4.0 1 4
r 2.650014 2 3 tcp 1000 ------- 1 0.0 4.0 1 4
+ 2.650014 3 4 tcp 1000 ------- 1 0.0 4.0 1 4
- 2.650014 3 4 tcp 1000 ------- 1 0.0 4.0 1 4
3.00000  1  0  5  0  ssthresh_ 0
3.00000  1  0  5  0  ssthresh_ 2
3.00000  1  0  5  0  cwnd_ 2.000 
+ 3 1 2 tcp 1000 ------- 2 1.0 5.0 0 5
- 3 1 2 tcp 1000 ------- 2 1.0 5.0 0 5
+ 3 1 2 tcp 1000 ------- 2 1.0 5.0 1 6
3.00000  1  0  5  0  maxseq_ 1
- 3.000002 1 2 tcp 1000 ------- 2 1.0 5.0 1 6
r 3.150016 3 4 tcp 1000 ------- 1 0.0 4.0 1 4
+ 3.150016 4 3 ack 40 ------- 1 4.0 0.0 1 7
- 3.150016 4 3 ack 40 ------- 1 4.0 0.0 1 7
r 3.300008 2 1 ack 40 ------- 2 5.0 1.0 0 3
3.30001  1  0  5  0  ack_ 0
3.30001  1  0  5  0  cwnd_ 2.500 
+ 3.300008 1 2 tcp 1000 ------- 2 1.0 5.0 2 8
- 3.300008 1 2 tcp 1000 ------- 2 1.0 5.0 2 8
3.30001  1  0  5  0  maxseq_ 2
r 3.650016 4 3 ack 40 ------- 1 4.0 0.0 1 7
+ 3.650016 3 2 ack 40 ------- 1 4.0 0.0 1 7
- 3.650016 3 2 ack 40 ------- 1 4.0 0.0 1 7
r 3.700017 3 2 ack 40 ------- 1 4.0 0.0 1 7
+ 3.700017 2 0 ack 40 ------- 1 4.0 0.0 1 7
- 3.700017 2 0 ack 40 ------- 1 4.0 0.0 1 7
r 3.800002 1 2 tcp 1000 ------- 2 1.0 5.0 0 5
+ 3.800002 2 3 tcp 1000 ------- 2 1.0 5.0 0 5
- 3.800002 2 3 tcp 1000 ------- 2 1.0 5.0 0 5
r 3.800004 1 2 tcp 1000 ------- 2 1.0 5.0 1 6
+ 3.800004 2 3 tcp 1000 ------- 2 1.0 5.0 1 6
- 3.800006 2 3 tcp 1000 ------- 2 1.0 5.0 1 6
r 3.850006 2 3 tcp 1000 ------- 2 1.0 5.0 0 5
+ 3.850006 3 5 tcp 1000 ------- 2 1.0 5.0 0 5
- 3.850006 3 5 tcp 1000 ------- 2 1.0 5.0 0 5
r 3.85001 2 3 tcp 1000 ------- 2 1.0 5.0 1 6
+ 3.85001 3 5 tcp 1000 ------- 2 1.0 5.0 1 6
- 3.85001 3 5 tcp 1000 ------- 2 1.0 5.0 1 6
r 4.10001 1 2 tcp 1000 ------- 2 1.0 5.0 2 8
+ 4.10001 2 3 tcp 1000 ------- 2 1.0 5.0 2 8
- 4.10001 2 3 tcp 1000 ------- 2 1.0 5.0 2 8
r 4.150014 2 3 tcp 1000 ------- 2 1.0 5.0 2 8
+ 4.150014 3 5 tcp 1000 ------- 2 1.0 5.0 2 8
- 4.150014 3 5 tcp 1000 ------- 2 1.0 5.0 2 8
r 4.200017 2 0 ack 40 ------- 1 4.0 0.0 1 7
4.20002  0  0  4  0  cwnd_ 2.000 
4.20002  0  0  4  0  ack_ 1
4.20002  0  0  4  0  cwnd_ 3.000 
+ 4.200017 0 2 tcp 1000 ------- 1 0.0 4.0 2 9
- 4.200017 0 2 tcp 1000 ------- 1 0.0 4.0 2 9
4.20002  0  0  4  0  maxseq_ 2
+ 4.200017 0 2 tcp 1000 ------- 1 0.0 4.0 3 10
4.20002  0  0  4  0  maxseq_ 3
+ 4.200017 0 2 tcp 1000 ------- 1 0.0 4.0 4 11
4.20002  0  0  4  0  maxseq_ 4
- 4.200019 0 2 tcp 1000 ------- 1 0.0 4.0 3 10
- 4.200021 0 2 tcp 1000 ------- 1 0.0 4.0 4 11
r 4.650008 3 5 tcp 1000 ------- 2 1.0 5.0 0 5
+ 4.650008 5 3 ack 40 ------- 2 5.0 1.0 0 12
- 4.650008 5 3 ack 40 ------- 2 5.0 1.0 0 12
r 4.650012 3 5 tcp 1000 ------- 2 1.0 5.0 1 6
+ 4.650012 5 3 ack 40 ------- 2 5.0 1.0 1 13
- 4.650012 5 3 ack 40 ------- 2 5.0 1.0 1 13
r 4.700019 0 2 tcp 1000 ------- 1 0.0 4.0 2 9
+ 4.700019 2 3 tcp 1000 ------- 1 0.0 4.0 2 9
- 4.700019 2 3 tcp 1000 ------- 1 0.0 4.0 2 9
r 4.700021 0 2 tcp 1000 ------- 1 0.0 4.0 3 10
+ 4.700021 2 3 tcp 1000 ------- 1 0.0 4.0 3 10
- 4.700023 2 3 tcp 1000 ------- 1 0.0 4.0 3 10
r 4.700023 0 2 tcp 1000 ------- 1 0.0 4.0 4 11
+ 4.700023 2 3 tcp 1000 ------- 1 0.0 4.0 4 11
- 4.700027 2 3 tcp 1000 ------- 1 0.0 4.0 4 11
r 4.750023 2 3 tcp 1000 ------- 1 0.0 4.0 2 9
+ 4.750023 3 4 tcp 1000 ------- 1 0.0 4.0 2 9
- 4.750023 3 4 tcp 1000 ------- 1 0.0 4.0 2 9
r 4.750027 2 3 tcp 1000 ------- 1 0.0 4.0 3 10
+ 4.750027 3 4 tcp 1000 ------- 1 0.0 4.0 3 10
- 4.750027 3 4 tcp 1000 ------- 1 0.0 4.0 3 10
r 4.750031 2 3 tcp 1000 ------- 1 0.0 4.0 4 11
+ 4.750031 3 4 tcp 1000 ------- 1 0.0 4.0 4 11
- 4.750031 3 4 tcp 1000 ------- 1 0.0 4.0 4 11
r 4.950016 3 5 tcp 1000 ------- 2 1.0 5.0 2 8
+ 4.950016 5 3 ack 40 ------- 2 5.0 1.0 2 14
- 4.950016 5 3 ack 40 ------- 2 5.0 1.0 2 14
r 5.250025 3 4 tcp 1000 ------- 1 0.0 4.0 2 9
+ 5.250025 4 3 ack 40 ------- 1 4.0 0.0 2 15
- 5.250025 4 3 ack 40 ------- 1 4.0 0.0 2 15
r 5.250029 3 4 tcp 1000 ------- 1 0.0 4.0 3 10
+ 5.250029 4 3 ack 40 ------- 1 4.0 0.0 3 16
- 5.250029 4 3 ack 40 ------- 1 4.0 0.0 3 16
r 5.250033 3 4 tcp 1000 ------- 1 0.0 4.0 4 11
+ 5.250033 4 3 ack 40 ------- 1 4.0 0.0 4 17
- 5.250033 4 3 ack 40 ------- 1 4.0 0.0 4 17
r 5.450008 5 3 ack 40 ------- 2 5.0 1.0 0 12
+ 5.450008 3 2 ack 40 ------- 2 5.0 1.0 0 12
- 5.450008 3 2 ack 40 ------- 2 5.0 1.0 0 12
r 5.450012 5 3 ack 40 ------- 2 5.0 1.0 1 13
+ 5.450012 3 2 ack 40 ------- 2 5.0 1.0 1 13
- 5.450012 3 2 ack 40 ------- 2 5.0 1.0 1 13
r 5.500008 3 2 ack 40 ------- 2 5.0 1.0 0 12
+ 5.500008 2 1 ack 40 ------- 2 5.0 1.0 0 12
- 5.500008 2 1 ack 40 ------- 2 5.0 1.0 0 12
r 5.500012 3 2 ack 40 ------- 2 5.0 1.0 1 13
+ 5.500012 2 1 ack 40 ------- 2 5.0 1.0 1 13
- 5.500012 2 1 ack 40 ------- 2 5.0 1.0 1 13
r 5.750016 5 3 ack 40 ------- 2 5.0 1.0 2 14
+ 5.750016 3 2 ack 40 ------- 2 5.0 1.0 2 14
- 5.750016 3 2 ack 40 ------- 2 5.0 1.0 2 14
r 5.750025 4 3 ack 40 ------- 1 4.0 0.0 2 15
+ 5.750025 3 2 ack 40 ------- 1 4.0 0.0 2 15
- 5.750025 3 2 ack 40 ------- 1 4.0 0.0 2 15
r 5.750029 4 3 ack 40 ------- 1 4.0 0.0 3 16
+ 5.750029 3 2 ack 40 ------- 1 4.0 0.0 3 16
- 5.750029 3 2 ack 40 ------- 1 4.0 0.0 3 16
r 5.750033 4 3 ack 40 ------- 1 4.0 0.0 4 17
+ 5.750033 3 2 ack 40 ------- 1 4.0 0.0 4 17
- 5.750033 3 2 ack 40 ------- 1 4.0 0.0 4 17
r 5.800017 3 2 ack 40 ------- 2 5.0 1.0 2 14
+ 5.800017 2 1 ack 40 ------- 2 5.0 1.0 2 14
- 5.800017 2 1 ack 40 ------- 2 5.0 1.0 2 14
r 5.800025 3 2 ack 40 ------- 1 4.0 0.0 2 15
+ 5.800025 2 0 ack 40 ------- 1 4.0 0.0 2 15
- 5.800025 2 0 ack 40 ------- 1 4.0 0.0 2 15
r 5.800029 3 2 ack 40 ------- 1 4.0 0.0 3 16
+ 5.800029 2 0 ack 40 ------- 1 4.0 0.0 3 16
- 5.800029 2 0 ack 40 ------- 1 4.0 0.0 3 16
r 5.800033 3 2 ack 40 ------- 1 4.0 0.0 4 17
+ 5.800033 2 0 ack 40 ------- 1 4.0 0.0 4 17
- 5.800033 2 0 ack 40 ------- 1 4.0 0.0 4 17
r 6.300008 2 1 ack 40 ------- 2 5.0 1.0 0 12
r 6.300012 2 1 ack 40 ------- 2 5.0 1.0 1 13
6.30001  1  0  5  0  cwnd_ 2.000 
6.30001  1  0  5  0  ack_ 1
6.30001  1  0  5  0  rtt_ 3.300 
6.30001  1  0  5  0  cwnd_ 2.500 
+ 6.300012 1 2 tcp 1000 ------- 2 1.0 5.0 3 18
- 6.300012 1 2 tcp 1000 ------- 2 1.0 5.0 3 18
6.30001  1  0  5  0  maxseq_ 3
r 6.300025 2 0 ack 40 ------- 1 4.0 0.0 2 15
6.30002  0  0  4  0  ack_ 2
+ 6.300025 0 2 tcp 1000 ------- 1 0.0 4.0 5 19
- 6.300025 0 2 tcp 1000 ------- 1 0.0 4.0 5 19
6.30002  0  0  4  0  maxseq_ 5
r 6.300029 2 0 ack 40 ------- 1 4.0 0.0 3 16
6.30003  0  0  4  0  ack_ 3
+ 6.300029 0 2 tcp 1000 ------- 1 0.0 4.0 6 20
- 6.300029 0 2 tcp 1000 ------- 1 0.0 4.0 6 20
6.30003  0  0  4  0  maxseq_ 6
r 6.300033 2 0 ack 40 ------- 1 4.0 0.0 4 17
6.30003  0  0  4  0  ack_ 4
+ 6.300033 0 2 tcp 1000 ------- 1 0.0 4.0 7 21
- 6.300033 0 2 tcp 1000 ------- 1 0.0 4.0 7 21
6.30003  0  0  4  0  maxseq_ 7
r 6.600017 2 1 ack 40 ------- 2 5.0 1.0 2 14
6.60002  1  0  5  0  ack_ 2
+ 6.600017 1 2 tcp 1000 ------- 2 1.0 5.0 4 22
- 6.600017 1 2 tcp 1000 ------- 2 1.0 5.0 4 22
6.60002  1  0  5  0  maxseq_ 4
r 6.800027 0 2 tcp 1000 ------- 1 0.0 4.0 5 19
+ 6.800027 2 3 tcp 1000 ------- 1 0.0 4.0 5 19
- 6.800027 2 3 tcp 1000 ------- 1 0.0 4.0 5 19
r 6.800031 0 2 tcp 1000 ------- 1 0.0 4.0 6 20
+ 6.800031 2 3 tcp 1000 ------- 1 0.0 4.0 6 20
- 6.800031 2 3 tcp 1000 ------- 1 0.0 4.0 6 20
r 6.800035 0 2 tcp 1000 ------- 1 0.0 4.0 7 21
+ 6.800035 2 3 tcp 1000 ------- 1 0.0 4.0 7 21
- 6.800035 2 3 tcp 1000 ------- 1 0.0 4.0 7 21
r 6.850031 2 3 tcp 1000 ------- 1 0.0 4.0 5 19
+ 6.850031 3 4 tcp 1000 ------- 1 0.0 4.0 5 19
- 6.850031 3 4 tcp 1000 ------- 1 0.0 4.0 5 19
r 6.850035 2 3 tcp 1000 ------- 1 0.0 4.0 6 20
+ 6.850035 3 4 tcp 1000 ------- 1 0.0 4.0 6 20
- 6.850035 3 4 tcp 1000 ------- 1 0.0 4.0 6 20
r 6.850039 2 3 tcp 1000 ------- 1 0.0 4.0 7 21
+ 6.850039 3 4 tcp 1000 ------- 1 0.0 4.0 7 21
- 6.850039 3 4 tcp 1000 ------- 1 0.0 4.0 7 21
r 7.100014 1 2 tcp 1000 ------- 2 1.0 5.0 3 18
+ 7.100014 2 3 tcp 1000 ------- 2 1.0 5.0 3 18
- 7.100014 2 3 tcp 1000 ------- 2 1.0 5.0 3 18
r 7.150018 2 3 tcp 1000 ------- 2 1.0 5.0 3 18
+ 7.150018 3 5 tcp 1000 ------- 2 1.0 5.0 3 18
- 7.150018 3 5 tcp 1000 ------- 2 1.0 5.0 3 18
r 7.350033 3 4 tcp 1000 ------- 1 0.0 4.0 5 19
+ 7.350033 4 3 ack 40 ------- 1 4.0 0.0 5 23
- 7.350033 4 3 ack 40 ------- 1 4.0 0.0 5 23
r 7.350037 3 4 tcp 1000 ------- 1 0.0 4.0 6 20
+ 7.350037 4 3 ack 40 ------- 1 4.0 0.0 6 24
- 7.350037 4 3 ack 40 ------- 1 4.0 0.0 6 24
r 7.350041 3 4 tcp 1000 ------- 1 0.0 4.0 7 21
+ 7.350041 4 3 ack 40 ------- 1 4.0 0.0 7 25
- 7.350041 4 3 ack 40 ------- 1 4.0 0.0 7 25
r 7.400019 1 2 tcp 1000 ------- 2 1.0 5.0 4 22
+ 7.400019 2 3 tcp 1000 ------- 2 1.0 5.0 4 22
- 7.400019 2 3 tcp 1000 ------- 2 1.0 5.0 4 22
r 7.450023 2 3 tcp 1000 ------- 2 1.0 5.0 4 22
+ 7.450023 3 5 tcp 1000 ------- 2 1.0 5.0 4 22
- 7.450023 3 5 tcp 1000 ------- 2 1.0 5.0 4 22
r 7.850033 4 3 ack 40 ------- 1 4.0 0.0 5 23
+ 7.850033 3 2 ack 40 ------- 1 4.0 0.0 5 23
- 7.850033 3 2 ack 40 ------- 1 4.0 0.0 5 23
r 7.850037 4 3 ack 40 ------- 1 4.0 0.0 6 24
+ 7.850037 3 2 ack 40 ------- 1 4.0 0.0 6 24
- 7.850037 3 2 ack 40 ------- 1 4.0 0.0 6 24
r 7.850041 4 3 ack 40 ------- 1 4.0 0.0 7 25
+ 7.850041 3 2 ack 40 ------- 1 4.0 0.0 7 25
- 7.850041 3 2 ack 40 ------- 1 4.0 0.0 7 25
r 7.900033 3 2 ack 40 ------- 1 4.0 0.0 5 23
+ 7.900033 2 0 ack 40 ------- 1 4.0 0.0 5 23
- 7.900033 2 0 ack 40 ------- 1 4.0 0.0 5 23
r 7.900037 3 2 ack 40 ------- 1 4.0 0.0 6 24
+ 7.900037 2 0 ack 40 ------- 1 4.0 0.0 6 24
- 7.900037 2 0 ack 40 ------- 1 4.0 0.0 6 24
r 7.900041 3 2 ack 40 ------- 1 4.0 0.0 7 25
+ 7.900041 2 0 ack 40 ------- 1 4.0 0.0 7 25
- 7.900041 2 0 ack 40 ------- 1 4.0 0.0 7 25
r 7.95002 3 5 tcp 1000 ------- 2 1.0 5.0 3 18
+ 7.95002 5 3 ack 40 ------- 2 5.0 1.0 3 26
- 7.95002 5 3 ack 40 ------- 2 5.0 1.0 3 26
r 8.250025 3 5 tcp 1000 ------- 2 1.0 5.0 4 22
+ 8.250025 5 3 ack 40 ------- 2 5.0 1.0 4 27
- 8.250025 5 3 ack 40 ------- 2 5.0 1.0 4 27
r 8.400033 2 0 ack 40 ------- 1 4.0 0.0 5 23
8.40003  0  0  4  0  ack_ 5
8.40003  0  0  4  0  cwnd_ 4.000 
+ 8.400033 0 2 tcp 1000 ------- 1 0.0 4.0 8 28
- 8.400033 0 2 tcp 1000 ------- 1 0.0 4.0 8 28
8.40003  0  0  4  0  maxseq_ 8
+ 8.400033 0 2 tcp 1000 ------- 1 0.0 4.0 9 29
8.40003  0  0  4  0  maxseq_ 9
- 8.400035 0 2 tcp 1000 ------- 1 0.0 4.0 9 29
r 8.400037 2 0 ack 40 ------- 1 4.0 0.0 6 24
8.40004  0  0  4  0  ack_ 6
8.40004  0  0  4  0  cwnd_ 5.000 
+ 8.400037 0 2 tcp 1000 ------- 1 0.0 4.0 10 30
8.40004  0  0  4  0  maxseq_ 10
+ 8.400037 0 2 tcp 1000 ------- 1 0.0 4.0 11 31
8.40004  0  0  4  0  maxseq_ 11
- 8.400037 0 2 tcp 1000 ------- 1 0.0 4.0 10 30
- 8.400039 0 2 tcp 1000 ------- 1 0.0 4.0 11 31
r 8.400041 2 0 ack 40 ------- 1 4.0 0.0 7 25
8.40004  0  0  4  0  ack_ 7
8.40004  0  0  4  0  cwnd_ 6.000 
+ 8.400041 0 2 tcp 1000 ------- 1 0.0 4.0 12 32
8.40004  0  0  4  0  maxseq_ 12
+ 8.400041 0 2 tcp 1000 ------- 1 0.0 4.0 13 33
8.40004  0  0  4  0  maxseq_ 13
- 8.400041 0 2 tcp 1000 ------- 1 0.0 4.0 12 32
- 8.400043 0 2 tcp 1000 ------- 1 0.0 4.0 13 33
r 8.75002 5 3 ack 40 ------- 2 5.0 1.0 3 26
+ 8.75002 3 2 ack 40 ------- 2 5.0 1.0 3 26
- 8.75002 3 2 ack 40 ------- 2 5.0 1.0 3 26
r 8.800021 3 2 ack 40 ------- 2 5.0 1.0 3 26
+ 8.800021 2 1 ack 40 ------- 2 5.0 1.0 3 26
- 8.800021 2 1 ack 40 ------- 2 5.0 1.0 3 26
r 8.900035 0 2 tcp 1000 ------- 1 0.0 4.0 8 28
+ 8.900035 2 3 tcp 1000 ------- 1 0.0 4.0 8 28
- 8.900035 2 3 tcp 1000 ------- 1 0.0 4.0 8 28
r 8.900037 0 2 tcp 1000 ------- 1 0.0 4.0 9 29
+ 8.900037 2 3 tcp 1000 ------- 1 0.0 4.0 9 29
r 8.900039 0 2 tcp 1000 ------- 1 0.0 4.0 10 30
+ 8.900039 2 3 tcp 1000 ------- 1 0.0 4.0 10 30
- 8.900039 2 3 tcp 1000 ------- 1 0.0 4.0 9 29
r 8.900041 0 2 tcp 1000 ------- 1 0.0 4.0 11 31
+ 8.900041 2 3 tcp 1000 ------- 1 0.0 4.0 11 31
r 8.900043 0 2 tcp 1000 ------- 1 0.0 4.0 12 32
+ 8.900043 2 3 tcp 1000 ------- 1 0.0 4.0 12 32
- 8.900043 2 3 tcp 1000 ------- 1 0.0 4.0 10 30
r 8.900045 0 2 tcp 1000 ------- 1 0.0 4.0 13 33
+ 8.900045 2 3 tcp 1000 ------- 1 0.0 4.0 13 33
- 8.900047 2 3 tcp 1000 ------- 1 0.0 4.0 11 31
- 8.900051 2 3 tcp 1000 ------- 1 0.0 4.0 12 32
- 8.900055 2 3 tcp 1000 ------- 1 0.0 4.0 13 33
r 8.950039 2 3 tcp 1000 ------- 1 0.0 4.0 8 28
+ 8.950039 3 4 tcp 1000 ------- 1 0.0 4.0 8 28
- 8.950039 3 4 tcp 1000 ------- 1 0.0 4.0 8 28
r 8.950043 2 3 tcp 1000 ------- 1 0.0 4.0 9 29
+ 8.950043 3 4 tcp 1000 ------- 1 0.0 4.0 9 29
- 8.950043 3 4 tcp 1000 ------- 1 0.0 4.0 9 29
r 8.950047 2 3 tcp 1000 ------- 1 0.0 4.0 10 30
+ 8.950047 3 4 tcp 1000 ------- 1 0.0 4.0 10 30
- 8.950047 3 4 tcp 1000 ------- 1 0.0 4.0 10 30
r 8.950051 2 3 tcp 1000 ------- 1 0.0 4.0 11 31
+ 8.950051 3 4 tcp 1000 ------- 1 0.0 4.0 11 31
- 8.950051 3 4 tcp 1000 ------- 1 0.0 4.0 11 31
r 8.950055 2 3 tcp 1000 ------- 1 0.0 4.0 12 32
+ 8.950055 3 4 tcp 1000 ------- 1 0.0 4.0 12 32
- 8.950055 3 4 tcp 1000 ------- 1 0.0 4.0 12 32
r 8.950059 2 3 tcp 1000 ------- 1 0.0 4.0 13 33
+ 8.950059 3 4 tcp 1000 ------- 1 0.0 4.0 13 33
- 8.950059 3 4 tcp 1000 ------- 1 0.0 4.0 13 33
r 9.050025 5 3 ack 40 ------- 2 5.0 1.0 4 27
+ 9.050025 3 2 ack 40 ------- 2 5.0 1.0 4 27
- 9.050025 3 2 ack 40 ------- 2 5.0 1.0 4 27
r 9.100025 3 2 ack 40 ------- 2 5.0 1.0 4 27
+ 9.100025 2 1 ack 40 ------- 2 5.0 1.0 4 27
- 9.100025 2 1 ack 40 ------- 2 5.0 1.0 4 27
r 9.450041 3 4 tcp 1000 ------- 1 0.0 4.0 8 28
+ 9.450041 4 3 ack 40 ------- 1 4.0 0.0 8 34
- 9.450041 4 3 ack 40 ------- 1 4.0 0.0 8 34
r 9.450045 3 4 tcp 1000 ------- 1 0.0 4.0 9 29
+ 9.450045 4 3 ack 40 ------- 1 4.0 0.0 9 35
- 9.450045 4 3 ack 40 ------- 1 4.0 0.0 9 35
r 9.450049 3 4 tcp 1000 ------- 1 0.0 4.0 10 30
+ 9.450049 4 3 ack 40 ------- 1 4.0 0.0 10 36
- 9.450049 4 3 ack 40 ------- 1 4.0 0.0 10 36
r 9.450053 3 4 tcp 1000 ------- 1 0.0 4.0 11 31
+ 9.450053 4 3 ack 40 ------- 1 4.0 0.0 11 37
- 9.450053 4 3 ack 40 ------- 1 4.0 0.0 11 37
r 9.450057 3 4 tcp 1000 ------- 1 0.0 4.0 12 32
+ 9.450057 4 3 ack 40 ------- 1 4.0 0.0 12 38
- 9.450057 4 3 ack 40 ------- 1 4.0 0.0 12 38
r 9.450061 3 4 tcp 1000 ------- 1 0.0 4.0 13 33
+ 9.450061 4 3 ack 40 ------- 1 4.0 0.0 13 39
- 9.450061 4 3 ack 40 ------- 1 4.0 0.0 13 39
r 9.600021 2 1 ack 40 ------- 2 5.0 1.0 3 26
9.60002  1  0  5  0  ack_ 3
+ 9.600021 1 2 tcp 1000 ------- 2 1.0 5.0 5 40
- 9.600021 1 2 tcp 1000 ------- 2 1.0 5.0 5 40
9.60002  1  0  5  0  maxseq_ 5
r 9.900025 2 1 ack 40 ------- 2 5.0 1.0 4 27
9.90002  1  0  5  0  ack_ 4
+ 9.900025 1 2 tcp 1000 ------- 2 1.0 5.0 6 41
- 9.900025 1 2 tcp 1000 ------- 2 1.0 5.0 6 41
9.90002  1  0  5  0  maxseq_ 6
r 9.950041 4 3 ack 40 ------- 1 4.0 0.0 8 34
+ 9.950041 3 2 ack 40 ------- 1 4.0 0.0 8 34
- 9.950041 3 2 ack 40 ------- 1 4.0 0.0 8 34
r 9.950045 4 3 ack 40 ------- 1 4.0 0.0 9 35
+ 9.950045 3 2 ack 40 ------- 1 4.0 0.0 9 35
- 9.950045 3 2 ack 40 ------- 1 4.0 0.0 9 35
r 9.950049 4 3 ack 40 ------- 1 4.0 0.0 10 36
+ 9.950049 3 2 ack 40 ------- 1 4.0 0.0 10 36
- 9.950049 3 2 ack 40 ------- 1 4.0 0.0 10 36
r 9.950053 4 3 ack 40 ------- 1 4.0 0.0 11 37
+ 9.950053 3 2 ack 40 ------- 1 4.0 0.0 11 37
- 9.950053 3 2 ack 40 ------- 1 4.0 0.0 11 37
r 9.950057 4 3 ack 40 ------- 1 4.0 0.0 12 38
+ 9.950057 3 2 ack 40 ------- 1 4.0 0.0 12 38
- 9.950057 3 2 ack 40 ------- 1 4.0 0.0 12 38
r 9.950061 4 3 ack 40 ------- 1 4.0 0.0 13 39
+ 9.950061 3 2 ack 40 ------- 1 4.0 0.0 13 39
- 9.950061 3 2 ack 40 ------- 1 4.0 0.0 13 39
r 10.000042 3 2 ack 40 ------- 1 4.0 0.0 8 34
+ 10.000042 2 0 ack 40 ------- 1 4.0 0.0 8 34
- 10.000042 2 0 ack 40 ------- 1 4.0 0.0 8 34
r 10.000046 3 2 ack 40 ------- 1 4.0 0.0 9 35
+ 10.000046 2 0 ack 40 ------- 1 4.0 0.0 9 35
- 10.000046 2 0 ack 40 ------- 1 4.0 0.0 9 35
r 10.00005 3 2 ack 40 ------- 1 4.0 0.0 10 36
+ 10.00005 2 0 ack 40 ------- 1 4.0 0.0 10 36
- 10.00005 2 0 ack 40 ------- 1 4.0 0.0 10 36
r 10.000054 3 2 ack 40 ------- 1 4.0 0.0 11 37
+ 10.000054 2 0 ack 40 ------- 1 4.0 0.0 11 37
- 10.000054 2 0 ack 40 ------- 1 4.0 0.0 11 37
r 10.000058 3 2 ack 40 ------- 1 4.0 0.0 12 38
+ 10.000058 2 0 ack 40 ------- 1 4.0 0.0 12 38
- 10.000058 2 0 ack 40 ------- 1 4.0 0.0 12 38
r 10.000062 3 2 ack 40 ------- 1 4.0 0.0 13 39
+ 10.000062 2 0 ack 40 ------- 1 4.0 0.0 13 39
- 10.000062 2 0 ack 40 ------- 1 4.0 0.0 13 39
r 10.400023 1 2 tcp 1000 ------- 2 1.0 5.0 5 40
+ 10.400023 2 3 tcp 1000 ------- 2 1.0 5.0 5 40
- 10.400023 2 3 tcp 1000 ------- 2 1.0 5.0 5 40
r 10.450027 2 3 tcp 1000 ------- 2 1.0 5.0 5 40
+ 10.450027 3 5 tcp 1000 ------- 2 1.0 5.0 5 40
- 10.450027 3 5 tcp 1000 ------- 2 1.0 5.0 5 40
r 10.500042 2 0 ack 40 ------- 1 4.0 0.0 8 34
10.50004 0  0  4  0  ack_ 8
+ 10.500042 0 2 tcp 1000 ------- 1 0.0 4.0 14 42
- 10.500042 0 2 tcp 1000 ------- 1 0.0 4.0 14 42
10.50004 0  0  4  0  maxseq_ 14
r 10.500046 2 0 ack 40 ------- 1 4.0 0.0 9 35
10.50005 0  0  4  0  ack_ 9
+ 10.500046 0 2 tcp 1000 ------- 1 0.0 4.0 15 43
- 10.500046 0 2 tcp 1000 ------- 1 0.0 4.0 15 43
10.50005 0  0  4  0  maxseq_ 15
r 10.50005 2 0 ack 40 ------- 1 4.0 0.0 10 36
10.50005 0  0  4  0  ack_ 10
+ 10.50005 0 2 tcp 1000 ------- 1 0.0 4.0 16 44
- 10.50005 0 2 tcp 1000 ------- 1 0.0 4.0 16 44
10.50005 0  0  4  0  maxseq_ 16
r 10.500054 2 0 ack 40 ------- 1 4.0 0.0 11 37
10.50005 0  0  4  0  ack_ 11
+ 10.500054 0 2 tcp 1000 ------- 1 0.0 4.0 17 45
- 10.500054 0 2 tcp 1000 ------- 1 0.0 4.0 17 45
10.50005 0  0  4  0  maxseq_ 17
r 10.500058 2 0 ack 40 ------- 1 4.0 0.0 12 38
10.50006 0  0  4  0  ack_ 12
+ 10.500058 0 2 tcp 1000 ------- 1 0.0 4.0 18 46
- 10.500058 0 2 tcp 1000 ------- 1 0.0 4.0 18 46
10.50006 0  0  4  0  maxseq_ 18
r 10.500062 2 0 ack 40 ------- 1 4.0 0.0 13 39
10.50006 0  0  4  0  ack_ 13
+ 10.500062 0 2 tcp 1000 ------- 1 0.0 4.0 19 47
- 10.500062 0 2 tcp 1000 ------- 1 0.0 4.0 19 47
10.50006 0  0  4  0  maxseq_ 19
r 10.700027 1 2 tcp 1000 ------- 2 1.0 5.0 6 41
+ 10.700027 2 3 tcp 1000 ------- 2 1.0 5.0 6 41
- 10.700027 2 3 tcp 1000 ------- 2 1.0 5.0 6 41
r 10.750031 2 3 tcp 1000 ------- 2 1.0 5.0 6 41
+ 10.750031 3 5 tcp 1000 ------- 2 1.0 5.0 6 41
- 10.750031 3 5 tcp 1000 ------- 2 1.0 5.0 6 41
r 11.000044 0 2 tcp 1000 ------- 1 0.0 4.0 14 42
+ 11.000044 2 3 tcp 1000 ------- 1 0.0 4.0 14 42
- 11.000044 2 3 tcp 1000 ------- 1 0.0 4.0 14 42
r 11.000048 0 2 tcp 1000 ------- 1 0.0 4.0 15 43
+ 11.000048 2 3 tcp 1000 ------- 1 0.0 4.0 15 43
- 11.000048 2 3 tcp 1000 ------- 1 0.0 4.0 15 43
r 11.000052 0 2 tcp 1000 ------- 1 0.0 4.0 16 44
+ 11.000052 2 3 tcp 1000 ------- 1 0.0 4.0 16 44
- 11.000052 2 3 tcp 1000 ------- 1 0.0 4.0 16 44
r 11.000056 0 2 tcp 1000 ------- 1 0.0 4.0 17 45
+ 11.000056 2 3 tcp 1000 ------- 1 0.0 4.0 17 45
- 11.000056 2 3 tcp 1000 ------- 1 0.0 4.0 17 45
r 11.00006 0 2 tcp 1000 ------- 1 0.0 4.0 18 46
+ 11.00006 2 3 tcp 1000 ------- 1 0.0 4.0 18 46
- 11.00006 2 3 tcp 1000 ------- 1 0.0 4.0 18 46
r 11.000064 0 2 tcp 1000 ------- 1 0.0 4.0 19 47
+ 11.000064 2 3 tcp 1000 ------- 1 0.0 4.0 19 47
- 11.000064 2 3 tcp 1000 ------- 1 0.0 4.0 19 47
r 11.050048 2 3 tcp 1000 ------- 1 0.0 4.0 14 42
+ 11.050048 3 4 tcp 1000 ------- 1 0.0 4.0 14 42
- 11.050048 3 4 tcp 1000 ------- 1 0.0 4.0 14 42
r 11.050052 2 3 tcp 1000 ------- 1 0.0 4.0 15 43
+ 11.050052 3 4 tcp 1000 ------- 1 0.0 4.0 15 43
- 11.050052 3 4 tcp 1000 ------- 1 0.0 4.0 15 43
r 11.050056 2 3 tcp 1000 ------- 1 0.0 4.0 16 44
+ 11.050056 3 4 tcp 1000 ------- 1 0.0 4.0 16 44
- 11.050056 3 4 tcp 1000 ------- 1 0.0 4.0 16 44
r 11.05006 2 3 tcp 1000 ------- 1 0.0 4.0 17 45
+ 11.05006 3 4 tcp 1000 ------- 1 0.0 4.0 17 45
- 11.05006 3 4 tcp 1000 ------- 1 0.0 4.0 17 45
r 11.050064 2 3 tcp 1000 ------- 1 0.0 4.0 18 46
+ 11.050064 3 4 tcp 1000 ------- 1 0.0 4.0 18 46
- 11.050064 3 4 tcp 1000 ------- 1 0.0 4.0 18 46
r 11.050068 2 3 tcp 1000 ------- 1 0.0 4.0 19 47
+ 11.050068 3 4 tcp 1000 ------- 1 0.0 4.0 19 47
- 11.050068 3 4 tcp 1000 ------- 1 0.0 4.0 19 47
r 11.250029 3 5 tcp 1000 ------- 2 1.0 5.0 5 40
+ 11.250029 5 3 ack 40 ------- 2 5.0 1.0 5 48
- 11.250029 5 3 ack 40 ------- 2 5.0 1.0 5 48
r 11.550033 3 5 tcp 1000 ------- 2 1.0 5.0 6 41
+ 11.550033 5 3 ack 40 ------- 2 5.0 1.0 6 49
- 11.550033 5 3 ack 40 ------- 2 5.0 1.0 6 49
r 11.55005 3 4 tcp 1000 ------- 1 0.0 4.0 14 42
+ 11.55005 4 3 ack 40 ------- 1 4.0 0.0 14 50
- 11.55005 4 3 ack 40 ------- 1 4.0 0.0 14 50
r 11.550054 3 4 tcp 1000 ------- 1 0.0 4.0 15 43
+ 11.550054 4 3 ack 40 ------- 1 4.0 0.0 15 51
- 11.550054 4 3 ack 40 ------- 1 4.0 0.0 15 51
r 11.550058 3 4 tcp 1000 ------- 1 0.0 4.0 16 44
+ 11.550058 4 3 ack 40 ------- 1 4.0 0.0 16 52
- 11.550058 4 3 ack 40 ------- 1 4.0 0.0 16 52
r 11.550062 3 4 tcp 1000 ------- 1 0.0 4.0 17 45
+ 11.550062 4 3 ack 40 ------- 1 4.0 0.0 17 53
- 11.550062 4 3 ack 40 ------- 1 4.0 0.0 17 53
r 11.550066 3 4 tcp 1000 ------- 1 0.0 4.0 18 46
+ 11.550066 4 3 ack 40 ------- 1 4.0 0.0 18 54
- 11.550066 4 3 ack 40 ------- 1 4.0 0.0 18 54
r 11.55007 3 4 tcp 1000 ------- 1 0.0 4.0 19 47
+ 11.55007 4 3 ack 40 ------- 1 4.0 0.0 19 55
- 11.55007 4 3 ack 40 ------- 1 4.0 0.0 19 55
r 12.050029 5 3 ack 40 ------- 2 5.0 1.0 5 48
+ 12.050029 3 2 ack 40 ------- 2 5.0 1.0 5 48
- 12.050029 3 2 ack 40 ------- 2 5.0 1.0 5 48
r 12.05005 4 3 ack 40 ------- 1 4.0 0.0 14 50
+ 12.05005 3 2 ack 40 ------- 1 4.0 0.0 14 50
- 12.05005 3 2 ack 40 ------- 1 4.0 0.0 14 50
r 12.050054 4 3 ack 40 ------- 1 4.0 0.0 15 51
+ 12.050054 3 2 ack 40 ------- 1 4.0 0.0 15 51
- 12.050054 3 2 ack 40 ------- 1 4.0 0.0 15 51
r 12.050058 4 3 ack 40 ------- 1 4.0 0.0 16 52
+ 12.050058 3 2 ack 40 ------- 1 4.0 0.0 16 52
- 12.050058 3 2 ack 40 ------- 1 4.0 0.0 16 52
r 12.050062 4 3 ack 40 ------- 1 4.0 0.0 17 53
+ 12.050062 3 2 ack 40 ------- 1 4.0 0.0 17 53
- 12.050062 3 2 ack 40 ------- 1 4.0 0.0 17 53
r 12.050066 4 3 ack 40 ------- 1 4.0 0.0 18 54
+ 12.050066 3 2 ack 40 ------- 1 4.0 0.0 18 54
- 12.050066 3 2 ack 40 ------- 1 4.0 0.0 18 54
r 12.05007 4 3 ack 40 ------- 1 4.0 0.0 19 55
+ 12.05007 3 2 ack 40 ------- 1 4.0 0.0 19 55
- 12.05007 3 2 ack 40 ------- 1 4.0 0.0 19 55
r 12.100029 3 2 ack 40 ------- 2 5.0 1.0 5 48
+ 12.100029 2 1 ack 40 ------- 2 5.0 1.0 5 48
- 12.100029 2 1 ack 40 ------- 2 5.0 1.0 5 48
r 12.10005 3 2 ack 40 ------- 1 4.0 0.0 14 50
+ 12.10005 2 0 ack 40 ------- 1 4.0 0.0 14 50
- 12.10005 2 0 ack 40 ------- 1 4.0 0.0 14 50
r 12.100054 3 2 ack 40 ------- 1 4.0 0.0 15 51
+ 12.100054 2 0 ack 40 ------- 1 4.0 0.0 15 51
- 12.100054 2 0 ack 40 ------- 1 4.0 0.0 15 51
r 12.100058 3 2 ack 40 ------- 1 4.0 0.0 16 52
+ 12.100058 2 0 ack 40 ------- 1 4.0 0.0 16 52
- 12.100058 2 0 ack 40 ------- 1 4.0 0.0 16 52
r 12.100062 3 2 ack 40 ------- 1 4.0 0.0 17 53
+ 12.100062 2 0 ack 40 ------- 1 4.0 0.0 17 53
- 12.100062 2 0 ack 40 ------- 1 4.0 0.0 17 53
r 12.100066 3 2 ack 40 ------- 1 4.0 0.0 18 54
+ 12.100066 2 0 ack 40 ------- 1 4.0 0.0 18 54
- 12.100066 2 0 ack 40 ------- 1 4.0 0.0 18 54
r 12.10007 3 2 ack 40 ------- 1 4.0 0.0 19 55
+ 12.10007 2 0 ack 40 ------- 1 4.0 0.0 19 55
- 12.10007 2 0 ack 40 ------- 1 4.0 0.0 19 55
r 12.350033 5 3 ack 40 ------- 2 5.0 1.0 6 49
+ 12.350033 3 2 ack 40 ------- 2 5.0 1.0 6 49
- 12.350033 3 2 ack 40 ------- 2 5.0 1.0 6 49
r 12.400033 3 2 ack 40 ------- 2 5.0 1.0 6 49
+ 12.400033 2 1 ack 40 ------- 2 5.0 1.0 6 49
- 12.400033 2 1 ack 40 ------- 2 5.0 1.0 6 49
r 12.60005 2 0 ack 40 ------- 1 4.0 0.0 14 50
12.60005 0  0  4  0  ack_ 14
12.60005 0  0  4  0  cwnd_ 7.000 
+ 12.60005 0 2 tcp 1000 ------- 1 0.0 4.0 20 56
- 12.60005 0 2 tcp 1000 ------- 1 0.0 4.0 20 56
12.60005 0  0  4  0  maxseq_ 20
+ 12.60005 0 2 tcp 1000 ------- 1 0.0 4.0 21 57
12.60005 0  0  4  0  maxseq_ 21
- 12.600052 0 2 tcp 1000 ------- 1 0.0 4.0 21 57
r 12.600054 2 0 ack 40 ------- 1 4.0 0.0 15 51
12.60005 0  0  4  0  ack_ 15
12.60005 0  0  4  0  cwnd_ 8.000 
+ 12.600054 0 2 tcp 1000 ------- 1 0.0 4.0 22 58
12.60005 0  0  4  0  maxseq_ 22
+ 12.600054 0 2 tcp 1000 ------- 1 0.0 4.0 23 59
12.60005 0  0  4  0  maxseq_ 23
- 12.600054 0 2 tcp 1000 ------- 1 0.0 4.0 22 58
- 12.600056 0 2 tcp 1000 ------- 1 0.0 4.0 23 59
r 12.600058 2 0 ack 40 ------- 1 4.0 0.0 16 52
12.60006 0  0  4  0  ack_ 16
12.60006 0  0  4  0  cwnd_ 9.000 
+ 12.600058 0 2 tcp 1000 ------- 1 0.0 4.0 24 60
12.60006 0  0  4  0  maxseq_ 24
+ 12.600058 0 2 tcp 1000 ------- 1 0.0 4.0 25 61
12.60006 0  0  4  0  maxseq_ 25
- 12.600058 0 2 tcp 1000 ------- 1 0.0 4.0 24 60
- 12.60006 0 2 tcp 1000 ------- 1 0.0 4.0 25 61
r 12.600062 2 0 ack 40 ------- 1 4.0 0.0 17 53
12.60006 0  0  4  0  ack_ 17
12.60006 0  0  4  0  cwnd_ 10.000
+ 12.600062 0 2 tcp 1000 ------- 1 0.0 4.0 26 62
12.60006 0  0  4  0  maxseq_ 26
+ 12.600062 0 2 tcp 1000 ------- 1 0.0 4.0 27 63
12.60006 0  0  4  0  maxseq_ 27
- 12.600062 0 2 tcp 1000 ------- 1 0.0 4.0 26 62
- 12.600064 0 2 tcp 1000 ------- 1 0.0 4.0 27 63
r 12.600066 2 0 ack 40 ------- 1 4.0 0.0 18 54
12.60007 0  0  4  0  ack_ 18
12.60007 0  0  4  0  cwnd_ 11.000
+ 12.600066 0 2 tcp 1000 ------- 1 0.0 4.0 28 64
12.60007 0  0  4  0  maxseq_ 28
+ 12.600066 0 2 tcp 1000 ------- 1 0.0 4.0 29 65
12.60007 0  0  4  0  maxseq_ 29
- 12.600066 0 2 tcp 1000 ------- 1 0.0 4.0 28 64
- 12.600068 0 2 tcp 1000 ------- 1 0.0 4.0 29 65
r 12.60007 2 0 ack 40 ------- 1 4.0 0.0 19 55
12.60007 0  0  4  0  ack_ 19
12.60007 0  0  4  0  cwnd_ 12.000
+ 12.60007 0 2 tcp 1000 ------- 1 0.0 4.0 30 66
12.60007 0  0  4  0  maxseq_ 30
+ 12.60007 0 2 tcp 1000 ------- 1 0.0 4.0 31 67
12.60007 0  0  4  0  maxseq_ 31
- 12.60007 0 2 tcp 1000 ------- 1 0.0 4.0 30 66
- 12.600072 0 2 tcp 1000 ------- 1 0.0 4.0 31 67
r 12.900029 2 1 ack 40 ------- 2 5.0 1.0 5 48
12.90003 1  0  5  0  ack_ 5
+ 12.900029 1 2 tcp 1000 ------- 2 1.0 5.0 7 68
- 12.900029 1 2 tcp 1000 ------- 2 1.0 5.0 7 68
12.90003 1  0  5  0  maxseq_ 7
r 13.100052 0 2 tcp 1000 ------- 1 0.0 4.0 20 56
+ 13.100052 2 3 tcp 1000 ------- 1 0.0 4.0 20 56
- 13.100052 2 3 tcp 1000 ------- 1 0.0 4.0 20 56
r 13.100054 0 2 tcp 1000 ------- 1 0.0 4.0 21 57
+ 13.100054 2 3 tcp 1000 ------- 1 0.0 4.0 21 57
r 13.100056 0 2 tcp 1000 ------- 1 0.0 4.0 22 58
+ 13.100056 2 3 tcp 1000 ------- 1 0.0 4.0 22 58
- 13.100056 2 3 tcp 1000 ------- 1 0.0 4.0 21 57
r 13.100058 0 2 tcp 1000 ------- 1 0.0 4.0 23 59
+ 13.100058 2 3 tcp 1000 ------- 1 0.0 4.0 23 59
r 13.10006 0 2 tcp 1000 ------- 1 0.0 4.0 24 60
+ 13.10006 2 3 tcp 1000 ------- 1 0.0 4.0 24 60
- 13.10006 2 3 tcp 1000 ------- 1 0.0 4.0 22 58
r 13.100062 0 2 tcp 1000 ------- 1 0.0 4.0 25 61
+ 13.100062 2 3 tcp 1000 ------- 1 0.0 4.0 25 61
r 13.100064 0 2 tcp 1000 ------- 1 0.0 4.0 26 62
+ 13.100064 2 3 tcp 1000 ------- 1 0.0 4.0 26 62
- 13.100064 2 3 tcp 1000 ------- 1 0.0 4.0 23 59
r 13.100066 0 2 tcp 1000 ------- 1 0.0 4.0 27 63
+ 13.100066 2 3 tcp 1000 ------- 1 0.0 4.0 27 63
r 13.100068 0 2 tcp 1000 ------- 1 0.0 4.0 28 64
+ 13.100068 2 3 tcp 1000 ------- 1 0.0 4.0 28 64
- 13.100068 2 3 tcp 1000 ------- 1 0.0 4.0 24 60
r 13.10007 0 2 tcp 1000 ------- 1 0.0 4.0 29 65
+ 13.10007 2 3 tcp 1000 ------- 1 0.0 4.0 29 65
r 13.100072 0 2 tcp 1000 ------- 1 0.0 4.0 30 66
+ 13.100072 2 3 tcp 1000 ------- 1 0.0 4.0 30 66
d 13.100072 2 3 tcp 1000 ------- 1 0.0 4.0 30 66
- 13.100072 2 3 tcp 1000 ------- 1 0.0 4.0 25 61
r 13.100074 0 2 tcp 1000 ------- 1 0.0 4.0 31 67
+ 13.100074 2 3 tcp 1000 ------- 1 0.0 4.0 31 67
- 13.100076 2 3 tcp 1000 ------- 1 0.0 4.0 26 62
- 13.10008 2 3 tcp 1000 ------- 1 0.0 4.0 27 63
- 13.100084 2 3 tcp 1000 ------- 1 0.0 4.0 28 64
- 13.100088 2 3 tcp 1000 ------- 1 0.0 4.0 29 65
- 13.100092 2 3 tcp 1000 ------- 1 0.0 4.0 31 67
r 13.150056 2 3 tcp 1000 ------- 1 0.0 4.0 20 56
+ 13.150056 3 4 tcp 1000 ------- 1 0.0 4.0 20 56
- 13.150056 3 4 tcp 1000 ------- 1 0.0 4.0 20 56
r 13.15006 2 3 tcp 1000 ------- 1 0.0 4.0 21 57
+ 13.15006 3 4 tcp 1000 ------- 1 0.0 4.0 21 57
- 13.15006 3 4 tcp 1000 ------- 1 0.0 4.0 21 57
r 13.150064 2 3 tcp 1000 ------- 1 0.0 4.0 22 58
+ 13.150064 3 4 tcp 1000 ------- 1 0.0 4.0 22 58
- 13.150064 3 4 tcp 1000 ------- 1 0.0 4.0 22 58
r 13.150068 2 3 tcp 1000 ------- 1 0.0 4.0 23 59
+ 13.150068 3 4 tcp 1000 ------- 1 0.0 4.0 23 59
- 13.150068 3 4 tcp 1000 ------- 1 0.0 4.0 23 59
r 13.150072 2 3 tcp 1000 ------- 1 0.0 4.0 24 60