0.00000  0  0  4  0  cwnd_ 1.000 
0.00000  0  0  4  0  ssthresh_ 20
0.00000  0  0  4  0  ack_ -1
0.00000  0  0  4  0  maxseq_ -1
0.00000  0  0  4  0  rtt_ 0.000 
0.00000  1  0  5  0  cwnd_ 1.000 
0.00000  1  0  5  0  ssthresh_ 20
0.00000  1  0  5  0  ack_ -1
0.00000  1  0  5  0  maxseq_ -1
0.00000  1  0  5  0  rtt_ 0.000 
0.00000  0  0  4  0  ssthresh_ 1000
0.00000  1  0  5  0  ssthresh_ 1000
+ 0 1 2 tcp 40 ------- 2 1.0 5.0 0 0
- 0 1 2 tcp 40 ------- 2 1.0 5.0 0 0
0.00000  1  0  5  0  maxseq_ 0
+ 0 0 2 tcp 40 ------- 1 0.0 4.0 0 1
- 0 0 2 tcp 40 ------- 1 0.0 4.0 0 1
0.00000  0  0  4  0  maxseq_ 0
r 0.5 0 2 tcp 40 ------- 1 0.0 4.0 0 1
+ 0.5 2 3 tcp 40 ------- 1 0.0 4.0 0 1
- 0.5 2 3 tcp 40 ------- 1 0.0 4.0 0 1
r 0.550001 2 3 tcp 40 ------- 1 0.0 4.0 0 1
+ 0.550001 3 4 tcp 40 ------- 1 0.0 4.0 0 1
- 0.550001 3 4 tcp 40 ------- 1 0.0 4.0 0 1
r 0.8 1 2 tcp 40 ------- 2 1.0 5.0 0 0
+ 0.8 2 3 tcp 40 ------- 2 1.0 5.0 0 0
- 0.8 2 3 tcp 40 ------- 2 1.0 5.0 0 0
r 0.850001 2 3 tcp 40 ------- 2 1.0 5.0 0 0
+ 0.850001 3 5 tcp 40 ------- 2 1.0 5.0 0 0
- 0.850001 3 5 tcp 40 ------- 2 1.0 5.0 0 0
r 1.050001 3 4 tcp 40 ------- 1 0.0 4.0 0 1
+ 1.050001 4 3 ack 40 ------- 1 4.0 0.0 0 2
- 1.050001 4 3 ack 40 ------- 1 4.0 0.0 0 2
r 1.550001 4 3 ack 40 ------- 1 4.0 0.0 0 2
+ 1.550001 3 2 ack 40 ------- 1 4.0 0.0 0 2
- 1.550001 3 2 ack 40 ------- 1 4.0 0.0 0 2
r 1.600002 3 2 ack 40 ------- 1 4.0 0.0 0 2
+ 1.600002 2 0 ack 40 ------- 1 4.0 0.0 0 2
- 1.600002 2 0 ack 40 ------- 1 4.0 0.0 0 2
r 1.650001 3 5 tcp 40 ------- 2 1.0 5.0 0 0
+ 1.650001 5 3 ack 40 ------- 2 5.0 1.0 0 3
- 1.650001 5 3 ack 40 ------- 2 5.0 1.0 0 3
r 2.100002 2 0 ack 40 ------- 1 4.0 0.0 0 2
2.10000  0  0  4  0  ack_ 0
2.10000  0  0  4  0  rtt_ 2.100 
2.10000  0  0  4  0  cwnd_ 2.000 
+ 2.100002 0 2 tcp 1040 ------- 1 0.0 4.0 1 4
- 2.100002 0 2 tcp 1040 ------- 1 0.0 4.0 1 4
2.10000  0  0  4  0  maxseq_ 1
+ 2.100002 0 2 tcp 1040 ------- 1 0.0 4.0 2 5
2.10000  0  0  4  0  maxseq_ 2
- 2.100004 0 2 tcp 1040 ------- 1 0.0 4.0 2 5
r 2.450001 5 3 ack 40 ------- 2 5.0 1.0 0 3
+ 2.450001 3 2 ack 40 ------- 2 5.0 1.0 0 3
- 2.450001 3 2 ack 40 ------- 2 5.0 1.0 0 3
r 2.500002 3 2 ack 40 ------- 2 5.0 1.0 0 3
+ 2.500002 2 1 ack 40 ------- 2 5.0 1.0 0 3
- 2.500002 2 1 ack 40 ------- 2 5.0 1.0 0 3
r 2.600004 0 2 tcp 1040 ------- 1 0.0 4.0 1 4
+ 2.600004 2 3 tcp 1040 ------- 1 0.0 4.0 1 4
- 2.600004 2 3 tcp 1040 ------- 1 0.0 4.0 1 4
r 2.600006 0 2 tcp 1040 ------- 1 0.0 4.0 2 5
+ 2.600006 2 3 tcp 1040 ------- 1 0.0 4.0 2 5
- 2.60002 2 3 tcp 1040 ------- 1 0.0 4.0 2 5
r 2.65002 2 3 tcp 1040 ------- 1 0.0 4.0 1 4
+ 2.65002 3 4 tcp 1040 ------- 1 0.0 4.0 1 4
- 2.65002 3 4 tcp 1040 ------- 1 0.0 4.0 1 4
r 2.650037 2 3 tcp 1040 ------- 1 0.0 4.0 2 5
+ 2.650037 3 4 tcp 1040 ------- 1 0.0 4.0 2 5
- 2.650037 3 4 tcp 1040 ------- 1 0.0 4.0 2 5
3.00000  1  0  5  0  ssthresh_ 0
3.00000  1  0  5  0  ssthresh_ 2
+ 3 1 2 tcp 40 ---A--- 2 1.0 5.0 0 6
- 3 1 2 tcp 40 ---A--- 2 1.0 5.0 0 6
r 3.150022 3 4 tcp 1040 ------- 1 0.0 4.0 1 4
+ 3.150022 4 3 ack 40 ------- 1 4.0 0.0 1 7
- 3.150022 4 3 ack 40 ------- 1 4.0 0.0 1 7
r 3.150039 3 4 tcp 1040 ------- 1 0.0 4.0 2 5
+ 3.150039 4 3 ack 40 ------- 1 4.0 0.0 2 8
- 3.150039 4 3 ack 40 ------- 1 4.0 0.0 2 8
r 3.300002 2 1 ack 40 ------- 2 5.0 1.0 0 3
3.30000  1  0  5  0  ack_ 0
3.30000  1  0  5  0  cwnd_ 2.000 
3.30000  1  0  5  0  cwnd_ 1.000 
+ 3.300002 1 2 tcp 1040 ------- 2 1.0 5.0 1 9
- 3.300002 1 2 tcp 1040 ------- 2 1.0 5.0 1 9
3.30000  1  0  5  0  maxseq_ 1
r 3.650022 4 3 ack 40 ------- 1 4.0 0.0 1 7
+ 3.650022 3 2 ack 40 ------- 1 4.0 0.0 1 7
- 3.650022 3 2 ack 40 ------- 1 4.0 0.0 1 7
r 3.650039 4 3 ack 40 ------- 1 4.0 0.0 2 8
+ 3.650039 3 2 ack 40 ------- 1 4.0 0.0 2 8
- 3.650039 3 2 ack 40 ------- 1 4.0 0.0 2 8
r 3.700023 3 2 ack 40 ------- 1 4.0 0.0 1 7
+ 3.700023 2 0 ack 40 ------- 1 4.0 0.0 1 7
- 3.700023 2 0 ack 40 ------- 1 4.0 0.0 1 7
r 3.70004 3 2 ack 40 ------- 1 4.0 0.0 2 8
+ 3.70004 2 0 ack 40 ------- 1 4.0 0.0 2 8
- 3.70004 2 0 ack 40 ------- 1 4.0 0.0 2 8
r 3.8 1 2 tcp 40 ---A--- 2 1.0 5.0 0 6
+ 3.8 2 3 tcp 40 ---A--- 2 1.0 5.0 0 6
- 3.8 2 3 tcp 40 ---A--- 2 1.0 5.0 0 6
r 3.850001 2 3 tcp 40 ---A--- 2 1.0 5.0 0 6
+ 3.850001 3 5 tcp 40 ---A--- 2 1.0 5.0 0 6
- 3.850001 3 5 tcp 40 ---A--- 2 1.0 5.0 0 6
r 4.100004 1 2 tcp 1040 ------- 2 1.0 5.0 1 9
+ 4.100004 2 3 tcp 1040 ------- 2 1.0 5.0 1 9
- 4.100004 2 3 tcp 1040 ------- 2 1.0 5.0 1 9
r 4.15002 2 3 tcp 1040 ------- 2 1.0 5.0 1 9
+ 4.15002 3 5 tcp 1040 ------- 2 1.0 5.0 1 9
- 4.15002 3 5 tcp 1040 ------- 2 1.0 5.0 1 9
r 4.200023 2 0 ack 40 ------- 1 4.0 0.0 1 7
4.20002  0  0  4  0  ack_ 1
4.20002  0  0  4  0  cwnd_ 3.000 
+ 4.200023 0 2 tcp 1040 ------- 1 0.0 4.0 3 10
- 4.200023 0 2 tcp 1040 ------- 1 0.0 4.0 3 10
4.20002  0  0  4  0  maxseq_ 3
+ 4.200023 0 2 tcp 1040 ------- 1 0.0 4.0 4 11
4.20002  0  0  4  0  maxseq_ 4
- 4.200025 0 2 tcp 1040 ------- 1 0.0 4.0 4 11
r 4.20004 2 0 ack 40 ------- 1 4.0 0.0 2 8
4.20004  0  0  4  0  ack_ 2
4.20004  0  0  4  0  cwnd_ 4.000 
+ 4.20004 0 2 tcp 1040 ------- 1 0.0 4.0 5 12
- 4.20004 0 2 tcp 1040 ------- 1 0.0 4.0 5 12
4.20004  0  0  4  0  maxseq_ 5
+ 4.20004 0 2 tcp 1040 ------- 1 0.0 4.0 6 13
4.20004  0  0  4  0  maxseq_ 6
- 4.200042 0 2 tcp 1040 ------- 1 0.0 4.0 6 13
r 4.650001 3 5 tcp 40 ---A--- 2 1.0 5.0 0 6
+ 4.650001 5 3 ack 40 ------- 2 5.0 1.0 0 14
- 4.650001 5 3 ack 40 ------- 2 5.0 1.0 0 14
r 4.700025 0 2 tcp 1040 ------- 1 0.0 4.0 3 10
+ 4.700025 2 3 tcp 1040 ------- 1 0.0 4.0 3 10
- 4.700025 2 3 tcp 1040 ------- 1 0.0 4.0 3 10
r 4.700027 0 2 tcp 1040 ------- 1 0.0 4.0 4 11
+ 4.700027 2 3 tcp 1040 ------- 1 0.0 4.0 4 11
r 4.700042 0 2 tcp 1040 ------- 1 0.0 4.0 5 12
+ 4.700042 2 3 tcp 1040 ------- 1 0.0 4.0 5 12
- 4.700042 2 3 tcp 1040 ------- 1 0.0 4.0 4 11
r 4.700044 0 2 tcp 1040 ------- 1 0.0 4.0 6 13
+ 4.700044 2 3 tcp 1040 ------- 1 0.0 4.0 6 13
- 4.700059 2 3 tcp 1040 ------- 1 0.0 4.0 5 12
- 4.700075 2 3 tcp 1040 ------- 1 0.0 4.0 6 13
r 4.750042 2 3 tcp 1040 ------- 1 0.0 4.0 3 10
+ 4.750042 3 4 tcp 1040 ------- 1 0.0 4.0 3 10
- 4.750042 3 4 tcp 1040 ------- 1 0.0 4.0 3 10
r 4.750059 2 3 tcp 1040 ------- 1 0.0 4.0 4 11
+ 4.750059 3 4 tcp 1040 ------- 1 0.0 4.0 4 11
- 4.750059 3 4 tcp 1040 ------- 1 0.0 4.0 4 11
r 4.750075 2 3 tcp 1040 ------- 1 0.0 4.0 5 12
+ 4.750075 3 4 tcp 1040 ------- 1 0.0 4.0 5 12
- 4.750075 3 4 tcp 1040 ------- 1 0.0 4.0 5 12
r 4.750092 2 3 tcp 1040 ------- 1 0.0 4.0 6 13
+ 4.750092 3 4 tcp 1040 ------- 1 0.0 4.0 6 13
- 4.750092 3 4 tcp 1040 ------- 1 0.0 4.0 6 13
r 4.950022 3 5 tcp 1040 ------- 2 1.0 5.0 1 9
+ 4.950022 5 3 ack 40 ------- 2 5.0 1.0 1 15
- 4.950022 5 3 ack 40 ------- 2 5.0 1.0 1 15
r 5.250044 3 4 tcp 1040 ------- 1 0.0 4.0 3 10
+ 5.250044 4 3 ack 40 ------- 1 4.0 0.0 3 16
- 5.250044 4 3 ack 40 ------- 1 4.0 0.0 3 16
r 5.250061 3 4 tcp 1040 ------- 1 0.0 4.0 4 11
+ 5.250061 4 3 ack 40 ------- 1 4.0 0.0 4 17
- 5.250061 4 3 ack 40 ------- 1 4.0 0.0 4 17
r 5.250077 3 4 tcp 1040 ------- 1 0.0 4.0 5 12
+ 5.250077 4 3 ack 40 ------- 1 4.0 0.0 5 18
- 5.250077 4 3 ack 40 ------- 1 4.0 0.0 5 18
r 5.250094 3 4 tcp 1040 ------- 1 0.0 4.0 6 13
+ 5.250094 4 3 ack 40 ------- 1 4.0 0.0 6 19
- 5.250094 4 3 ack 40 ------- 1 4.0 0.0 6 19
r 5.450001 5 3 ack 40 ------- 2 5.0 1.0 0 14
+ 5.450001 3 2 ack 40 ------- 2 5.0 1.0 0 14
- 5.450001 3 2 ack 40 ------- 2 5.0 1.0 0 14
r 5.500002 3 2 ack 40 ------- 2 5.0 1.0 0 14
+ 5.500002 2 1 ack 40 ------- 2 5.0 1.0 0 14
- 5.500002 2 1 ack 40 ------- 2 5.0 1.0 0 14
r 5.750022 5 3 ack 40 ------- 2 5.0 1.0 1 15
+ 5.750022 3 2 ack 40 ------- 2 5.0 1.0 1 15
- 5.750022 3 2 ack 40 ------- 2 5.0 1.0 1 15
r 5.750044 4 3 ack 40 ------- 1 4.0 0.0 3 16
+ 5.750044 3 2 ack 40 ------- 1 4.0 0.0 3 16
- 5.750044 3 2 ack 40 ------- 1 4.0 0.0 3 16
r 5.750061 4 3 ack 40 ------- 1 4.0 0.0 4 17
+ 5.750061 3 2 ack 40 ------- 1 4.0 0.0 4 17
- 5.750061 3 2 ack 40 ------- 1 4.0 0.0 4 17
r 5.750077 4 3 ack 40 ------- 1 4.0 0.0 5 18
+ 5.750077 3 2 ack 40 ------- 1 4.0 0.0 5 18
- 5.750077 3 2 ack 40 ------- 1 4.0 0.0 5 18
r 5.750094 4 3 ack 40 ------- 1 4.0 0.0 6 19
+ 5.750094 3 2 ack 40 ------- 1 4.0 0.0 6 19
- 5.750094 3 2 ack 40 ------- 1 4.0 0.0 6 19
r 5.800023 3 2 ack 40 ------- 2 5.0 1.0 1 15
+ 5.800023 2 1 ack 40 ------- 2 5.0 1.0 1 15
- 5.800023 2 1 ack 40 ------- 2 5.0 1.0 1 15
r 5.800045 3 2 ack 40 ------- 1 4.0 0.0 3 16
+ 5.800045 2 0 ack 40 ------- 1 4.0 0.0 3 16
- 5.800045 2 0 ack 40 ------- 1 4.0 0.0 3 16
r 5.800061 3 2 ack 40 ------- 1 4.0 0.0 4 17
+ 5.800061 2 0 ack 40 ------- 1 4.0 0.0 4 17
- 5.800061 2 0 ack 40 ------- 1 4.0 0.0 4 17
r 5.800078 3 2 ack 40 ------- 1 4.0 0.0 5 18
+ 5.800078 2 0 ack 40 ------- 1 4.0 0.0 5 18
- 5.800078 2 0 ack 40 ------- 1 4.0 0.0 5 18
r 5.800095 3 2 ack 40 ------- 1 4.0 0.0 6 19
+ 5.800095 2 0 ack 40 ------- 1 4.0 0.0 6 19
- 5.800095 2 0 ack 40 ------- 1 4.0 0.0 6 19
r 6.300002 2 1 ack 40 ------- 2 5.0 1.0 0 14
+ 6.300002 1 2 tcp 1040 ------- 2 1.0 5.0 2 20
- 6.300002 1 2 tcp 1040 ------- 2 1.0 5.0 2 20
6.30000  1  0  5  0  maxseq_ 2
r 6.300045 2 0 ack 40 ------- 1 4.0 0.0 3 16
6.30004  0  0  4  0  ack_ 3
6.30004  0  0  4  0  cwnd_ 5.000 
+ 6.300045 0 2 tcp 1040 ------- 1 0.0 4.0 7 21
- 6.300045 0 2 tcp 1040 ------- 1 0.0 4.0 7 21
6.30004  0  0  4  0  maxseq_ 7
+ 6.300045 0 2 tcp 1040 ------- 1 0.0 4.0 8 22
6.30004  0  0  4  0  maxseq_ 8
- 6.300047 0 2 tcp 1040 ------- 1 0.0 4.0 8 22
r 6.300061 2 0 ack 40 ------- 1 4.0 0.0 4 17
6.30006  0  0  4  0  ack_ 4
6.30006  0  0  4  0  cwnd_ 6.000 
+ 6.300061 0 2 tcp 1040 ------- 1 0.0 4.0 9 23
- 6.300061 0 2 tcp 1040 ------- 1 0.0 4.0 9 23
6.30006  0  0  4  0  maxseq_ 9
+ 6.300061 0 2 tcp 1040 ------- 1 0.0 4.0 10 24
6.30006  0  0  4  0  maxseq_ 10
- 6.300064 0 2 tcp 1040 ------- 1 0.0 4.0 10 24
r 6.300078 2 0 ack 40 ------- 1 4.0 0.0 5 18
6.30008  0  0  4  0  ack_ 5
6.30008  0  0  4  0  cwnd_ 7.000 
+ 6.300078 0 2 tcp 1040 ------- 1 0.0 4.0 11 25
- 6.300078 0 2 tcp 1040 ------- 1 0.0 4.0 11 25
6.30008  0  0  4  0  maxseq_ 11
+ 6.300078 0 2 tcp 1040 ------- 1 0.0 4.0 12 26
6.30008  0  0  4  0  maxseq_ 12
- 6.30008 0 2 tcp 1040 ------- 1 0.0 4.0 12 26
r 6.300095 2 0 ack 40 ------- 1 4.0 0.0 6 19
6.30009  0  0  4  0  ack_ 6
6.30009  0  0  4  0  cwnd_ 8.000 
+ 6.300095 0 2 tcp 1040 ------- 1 0.0 4.0 13 27
- 6.300095 0 2 tcp 1040 ------- 1 0.0 4.0 13 27
6.30009  0  0  4  0  maxseq_ 13
+ 6.300095 0 2 tcp 1040 ------- 1 0.0 4.0 14 28
6.30009  0  0  4  0  maxseq_ 14
- 6.300097 0 2 tcp 1040 ------- 1 0.0 4.0 14 28
r 6.600023 2 1 ack 40 ------- 2 5.0 1.0 1 15
6.60002  1  0  5  0  ack_ 1
6.60002  1  0  5  0  rtt_ 3.300 
6.60002  1  0  5  0  cwnd_ 2.000 
+ 6.600023 1 2 tcp 1040 ------- 2 1.0 5.0 3 29
- 6.600023 1 2 tcp 1040 ------- 2 1.0 5.0 3 29
6.60002  1  0  5  0  maxseq_ 3
r 6.800047 0 2 tcp 1040 ------- 1 0.0 4.0 7 21
+ 6.800047 2 3 tcp 1040 ------- 1 0.0 4.0 7 21
- 6.800047 2 3 tcp 1040 ------- 1 0.0 4.0 7 21
r 6.800049 0 2 tcp 1040 ------- 1 0.0 4.0 8 22
+ 6.800049 2 3 tcp 1040 ------- 1 0.0 4.0 8 22
r 6.800064 0 2 tcp 1040 ------- 1 0.0 4.0 9 23
+ 6.800064 2 3 tcp 1040 ------- 1 0.0 4.0 9 23
- 6.800064 2 3 tcp 1040 ------- 1 0.0 4.0 8 22
r 6.800066 0 2 tcp 1040 ------- 1 0.0 4.0 10 24
+ 6.800066 2 3 tcp 1040 ------- 1 0.0 4.0 10 24
r 6.80008 0 2 tcp 1040 ------- 1 0.0 4.0 11 25
+ 6.80008 2 3 tcp 1040 ------- 1 0.0 4.0 11 25
- 6.80008 2 3 tcp 1040 ------- 1 0.0 4.0 9 23
r 6.800082 0 2 tcp 1040 ------- 1 0.0 4.0 12 26
+ 6.800082 2 3 tcp 1040 ------- 1 0.0 4.0 12 26
r 6.800097 0 2 tcp 1040 ------- 1 0.0 4.0 13 27
+ 6.800097 2 3 tcp 1040 ------- 1 0.0 4.0 13 27
- 6.800097 2 3 tcp 1040 ------- 1 0.0 4.0 10 24
r 6.800099 0 2 tcp 1040 ------- 1 0.0 4.0 14 28
+ 6.800099 2 3 tcp 1040 ------- 1 0.0 4.0 14 28
- 6.800113 2 3 tcp 1040 ------- 1 0.0 4.0 11 25
- 6.80013 2 3 tcp 1040 ------- 1 0.0 4.0 12 26
- 6.800147 2 3 tcp 1040 ------- 1 0.0 4.0 13 27
- 6.800163 2 3 tcp 1040 ------- 1 0.0 4.0 14 28
r 6.850064 2 3 tcp 1040 ------- 1 0.0 4.0 7 21
+ 6.850064 3 4 tcp 1040 ------- 1 0.0 4.0 7 21
- 6.850064 3 4 tcp 1040 ------- 1 0.0 4.0 7 21
r 6.85008 2 3 tcp 1040 ------- 1 0.0 4.0 8 22
+ 6.85008 3 4 tcp 1040 ------- 1 0.0 4.0 8 22
- 6.85008 3 4 tcp 1040 ------- 1 0.0 4.0 8 22
r 6.850097 2 3 tcp 1040 ------- 1 0.0 4.0 9 23
+ 6.850097 3 4 tcp 1040 ------- 1 0.0 4.0 9 23
- 6.850097 3 4 tcp 1040 ------- 1 0.0 4.0 9 23
r 6.850113 2 3 tcp 1040 ------- 1 0.0 4.0 10 24
+ 6.850113 3 4 tcp 1040 ------- 1 0.0 4.0 10 24
- 6.850113 3 4 tcp 1040 ------- 1 0.0 4.0 10 24
r 6.85013 2 3 tcp 1040 ------- 1 0.0 4.0 11 25
+ 6.85013 3 4 tcp 1040 ------- 1 0.0 4.0 11 25
- 6.85013 3 4 tcp 1040 ------- 1 0.0 4.0 11 25
r 6.850147 2 3 tcp 1040 ------- 1 0.0 4.0 12 26
+ 6.850147 3 4 tcp 1040 ------- 1 0.0 4.0 12 26
- 6.850147 3 4 tcp 1040 ------- 1 0.0 4.0 12 26
r 6.850163 2 3 tcp 1040 ------- 1 0.0 4.0 13 27
+ 6.850163 3 4 tcp 1040 ------- 1 0.0 4.0 13 27
- 6.850163 3 4 tcp 1040 ------- 1 0.0 4.0 13 27
r 6.85018 2 3 tcp 1040 ------- 1 0.0 4.0 14 28
+ 6.85018 3 4 tcp 1040 ------- 1 0.0 4.0 14 28
- 6.85018 3 4 tcp 1040 ------- 1 0.0 4.0 14 28
r 7.100004 1 2 tcp 1040 ------- 2 1.0 5.0 2 20
+ 7.100004 2 3 tcp 1040 ------- 2 1.0 5.0 2 20
- 7.100004 2 3 tcp 1040 ------- 2 1.0 5.0 2 20
r 7.15002 2 3 tcp 1040 ------- 2 1.0 5.0 2 20
+ 7.15002 3 5 tcp 1040 ------- 2 1.0 5.0 2 20
- 7.15002 3 5 tcp 1040 ------- 2 1.0 5.0 2 20
r 7.350066 3 4 tcp 1040 ------- 1 0.0 4.0 7 21
+ 7.350066 4 3 ack 40 ------- 1 4.0 0.0 7 30
- 7.350066 4 3 ack 40 ------- 1 4.0 0.0 7 30
r 7.350082 3 4 tcp 1040 ------- 1 0.0 4.0 8 22
+ 7.350082 4 3 ack 40 ------- 1 4.0 0.0 8 31
- 7.350082 4 3 ack 40 ------- 1 4.0 0.0 8 31
r 7.350099 3 4 tcp 1040 ------- 1 0.0 4.0 9 23
+ 7.350099 4 3 ack 40 ------- 1 4.0 0.0 9 32
- 7.350099 4 3 ack 40 ------- 1 4.0 0.0 9 32
r 7.350116 3 4 tcp 1040 ------- 1 0.0 4.0 10 24
+ 7.350116 4 3 ack 40 ------- 1 4.0 0.0 10 33
- 7.350116 4 3 ack 40 ------- 1 4.0 0.0 10 33
r 7.350132 3 4 tcp 1040 ------- 1 0.0 4.0 11 25
+ 7.350132 4 3 ack 40 ------- 1 4.0 0.0 11 34
- 7.350132 4 3 ack 40 ------- 1 4.0 0.0 11 34
r 7.350149 3 4 tcp 1040 ------- 1 0.0 4.0 12 26
+ 7.350149 4 3 ack 40 ------- 1 4.0 0.0 12 35
- 7.350149 4 3 ack 40 ------- 1 4.0 0.0 12 35
r 7.350165 3 4 tcp 1040 ------- 1 0.0 4.0 13 27
+ 7.350165 4 3 ack 40 ------- 1 4.0 0.0 13 36
- 7.350165 4 3 ack 40 ------- 1 4.0 0.0 13 36
r 7.350182 3 4 tcp 1040 ------- 1 0.0 4.0 14 28
+ 7.350182 4 3 ack 40 ------- 1 4.0 0.0 14 37
- 7.350182 4 3 ack 40 ------- 1 4.0 0.0 14 37
r 7.400025 1 2 tcp 1040 ------- 2 1.0 5.0 3 29
+ 7.400025 2 3 tcp 1040 ------- 2 1.0 5.0 3 29
- 7.400025 2 3 tcp 1040 ------- 2 1.0 5.0 3 29
r 7.450042 2 3 tcp 1040 ------- 2 1.0 5.0 3 29
+ 7.450042 3 5 tcp 1040 ------- 2 1.0 5.0 3 29
- 7.450042 3 5 tcp 1040 ------- 2 1.0 5.0 3 29
r 7.850066 4 3 ack 40 ------- 1 4.0 0.0 7 30
+ 7.850066 3 2 ack 40 ------- 1 4.0 0.0 7 30
- 7.850066 3 2 ack 40 ------- 1 4.0 0.0 7 30
r 7.850082 4 3 ack 40 ------- 1 4.0 0.0 8 31
+ 7.850082 3 2 ack 40 ------- 1 4.0 0.0 8 31
- 7.850082 3 2 ack 40 ------- 1 4.0 0.0 8 31
r 7.850099 4 3 ack 40 ------- 1 4.0 0.0 9 32
+ 7.850099 3 2 ack 40 ------- 1 4.0 0.0 9 32
- 7.850099 3 2 ack 40 ------- 1 4.0 0.0 9 32
r 7.850116 4 3 ack 40 ------- 1 4.0 0.0 10 33
+ 7.850116 3 2 ack 40 ------- 1 4.0 0.0 10 33
- 7.850116 3 2 ack 40 ------- 1 4.0 0.0 10 33
r 7.850132 4 3 ack 40 ------- 1 4.0 0.0 11 34
+ 7.850132 3 2 ack 40 ------- 1 4.0 0.0 11 34
- 7.850132 3 2 ack 40 ------- 1 4.0 0.0 11 34
r 7.850149 4 3 ack 40 ------- 1 4.0 0.0 12 35
+ 7.850149 3 2 ack 40 ------- 1 4.0 0.0 12 35
- 7.850149 3 2 ack 40 ------- 1 4.0 0.0 12 35
r 7.850166 4 3 ack 40 ------- 1 4.0 0.0 13 36
+ 7.850166 3 2 ack 40 ------- 1 4.0 0.0 13 36
- 7.850166 3 2 ack 40 ------- 1 4.0 0.0 13 36
r 7.850182 4 3 ack 40 ------- 1 4.0 0.0 14 37
+ 7.850182 3 2 ack 40 ------- 1 4.0 0.0 14 37
- 7.850182 3 2 ack 40 ------- 1 4.0 0.0 14 37
r 7.900066 3 2 ack 40 ------- 1 4.0 0.0 7 30
+ 7.900066 2 0 ack 40 ------- 1 4.0 0.0 7 30
- 7.900066 2 0 ack 40 ------- 1 4.0 0.0 7 30
r 7.900083 3 2 ack 40 ------- 1 4.0 0.0 8 31
+ 7.900083 2 0 ack 40 ------- 1 4.0 0.0 8 31
- 7.900083 2 0 ack 40 ------- 1 4.0 0.0 8 31
r 7.9001 3 2 ack 40 ------- 1 4.0 0.0 9 32
+ 7.9001 2 0 ack 40 ------- 1 4.0 0.0 9 32
- 7.9001 2 0 ack 40 ------- 1 4.0 0.0 9 32
r 7.900116 3 2 ack 40 ------- 1 4.0 0.0 10 33
+ 7.900116 2 0 ack 40 ------- 1 4.0 0.0 10 33
- 7.900116 2 0 ack 40 ------- 1 4.0 0.0 10 33
r 7.900133 3 2 ack 40 ------- 1 4.0 0.0 11 34
+ 7.900133 2 0 ack 40 ------- 1 4.0 0.0 11 34
- 7.900133 2 0 ack 40 ------- 1 4.0 0.0 11 34
r 7.90015 3 2 ack 40 ------- 1 4.0 0.0 12 35
+ 7.90015 2 0 ack 40 ------- 1 4.0 0.0 12 35
- 7.90015 2 0 ack 40 ------- 1 4.0 0.0 12 35
r 7.900166 3 2 ack 40 ------- 1 4.0 0.0 13 36
+ 7.900166 2 0 ack 40 ------- 1 4.0 0.0 13 36
- 7.900166 2 0 ack 40 ------- 1 4.0 0.0 13 36
r 7.900183 3 2 ack 40 ------- 1 4.0 0.0 14 37
+ 7.900183 2 0 ack 40 ------- 1 4.0 0.0 14 37
- 7.900183 2 0 ack 40 ------- 1 4.0 0.0 14 37
r 7.950022 3 5 tcp 1040 ------- 2 1.0 5.0 2 20
+ 7.950022 5 3 ack 40 ------- 2 5.0 1.0 2 38
- 7.950022 5 3 ack 40 ------- 2 5.0 1.0 2 38
r 8.250044 3 5 tcp 1040 ------- 2 1.0 5.0 3 29
+ 8.250044 5 3 ack 40 ------- 2 5.0 1.0 3 39
- 8.250044 5 3 ack 40 ------- 2 5.0 1.0 3 39
r 8.400066 2 0 ack 40 ------- 1 4.0 0.0 7 30
8.40007  0  0  4  0  ack_ 7
8.40007  0  0  4  0  cwnd_ 9.000 
+ 8.400066 0 2 tcp 1040 ------- 1 0.0 4.0 15 40
- 8.400066 0 2 tcp 1040 ------- 1 0.0 4.0 15 40
8.40007  0  0  4  0  maxseq_ 15
+ 8.400066 0 2 tcp 1040 ------- 1 0.0 4.0 16 41
8.40007  0  0  4  0  maxseq_ 16
- 8.400068 0 2 tcp 1040 ------- 1 0.0 4.0 16 41
r 8.400083 2 0 ack 40 ------- 1 4.0 0.0 8 31
8.40008  0  0  4  0  ack_ 8
8.40008  0  0  4  0  cwnd_ 10.000
+ 8.400083 0 2 tcp 1040 ------- 1 0.0 4.0 17 42
- 8.400083 0 2 tcp 1040 ------- 1 0.0 4.0 17 42
8.40008  0  0  4  0  maxseq_ 17
+ 8.400083 0 2 tcp 1040 ------- 1 0.0 4.0 18 43
8.40008  0  0  4  0  maxseq_ 18
- 8.400085 0 2 tcp 1040 ------- 1 0.0 4.0 18 43
r 8.4001 2 0 ack 40 ------- 1 4.0 0.0 9 32
8.40010  0  0  4  0  ack_ 9
8.40010  0  0  4  0  cwnd_ 11.000
+ 8.4001 0 2 tcp 1040 ------- 1 0.0 4.0 19 44
- 8.4001 0 2 tcp 1040 ------- 1 0.0 4.0 19 44
8.40010  0  0  4  0  maxseq_ 19
+ 8.4001 0 2 tcp 1040 ------- 1 0.0 4.0 20 45
8.40010  0  0  4  0  maxseq_ 20
- 8.400102 0 2 tcp 1040 ------- 1 0.0 4.0 20 45
r 8.400116 2 0 ack 40 ------- 1 4.0 0.0 10 33
8.40012  0  0  4  0  ack_ 10
8.40012  0  0  4  0  cwnd_ 12.000
+ 8.400116 0 2 tcp 1040 ------- 1 0.0 4.0 21 46
- 8.400116 0 2 tcp 1040 ------- 1 0.0 4.0 21 46
8.40012  0  0  4  0  maxseq_ 21
+ 8.400116 0 2 tcp 1040 ------- 1 0.0 4.0 22 47
8.40012  0  0  4  0  maxseq_ 22
- 8.400118 0 2 tcp 1040 ------- 1 0.0 4.0 22 47
r 8.400133 2 0 ack 40 ------- 1 4.0 0.0 11 34
8.40013  0  0  4  0  ack_ 11
8.40013  0  0  4  0  cwnd_ 13.000
+ 8.400133 0 2 tcp 1040 ------- 1 0.0 4.0 23 48
- 8.400133 0 2 tcp 1040 ------- 1 0.0 4.0 23 48
8.40013  0  0  4  0  maxseq_ 23
+ 8.400133 0 2 tcp 1040 ------- 1 0.0 4.0 24 49
8.40013  0  0  4  0  maxseq_ 24
- 8.400135 0 2 tcp 1040 ------- 1 0.0 4.0 24 49
r 8.40015 2 0 ack 40 ------- 1 4.0 0.0 12 35
8.40015  0  0  4  0  ack_ 12
8.40015  0  0  4  0  cwnd_ 14.000
+ 8.40015 0 2 tcp 1040 ------- 1 0.0 4.0 25 50
- 8.40015 0 2 tcp 1040 ------- 1 0.0 4.0 25 50
8.40015  0  0  4  0  maxseq_ 25
+ 8.40015 0 2 tcp 1040 ------- 1 0.0 4.0 26 51
8.40015  0  0  4  0  maxseq_ 26
- 8.400152 0 2 tcp 1040 ------- 1 0.0 4.0 26 51
r 8.400166 2 0 ack 40 ------- 1 4.0 0.0 13 36
8.40017  0  0  4  0  ack_ 13
8.40017  0  0  4  0  cwnd_ 15.000
+ 8.400166 0 2 tcp 1040 ------- 1 0.0 4.0 27 52
- 8.400166 0 2 tcp 1040 ------- 1 0.0 4.0 27 52
8.40017  0  0  4  0  maxseq_ 27
+ 8.400166 0 2 tcp 1040 ------- 1 0.0 4.0 28 53
8.40017  0  0  4  0  maxseq_ 28
- 8.400168 0 2 tcp 1040 ------- 1 0.0 4.0 28 53
r 8.400183 2 0 ack 40 ------- 1 4.0 0.0 14 37
8.40018  0  0  4  0  ack_ 14
8.40018  0  0  4  0  cwnd_ 16.000
+ 8.400183 0 2 tcp 1040 ------- 1 0.0 4.0 29 54
- 8.400183 0 2 tcp 1040 ------- 1 0.0 4.0 29 54
8.40018  0  0  4  0  maxseq_ 29
+ 8.400183 0 2 tcp 1040 ------- 1 0.0 4.0 30 55
8.40018  0  0  4  0  maxseq_ 30
- 8.400185 0 2 tcp 1040 ------- 1 0.0 4.0 30 55
r 8.750022 5 3 ack 40 ------- 2 5.0 1.0 2 38
+ 8.750022 3 2 ack 40 ------- 2 5.0 1.0 2 38
- 8.750022 3 2 ack 40 ------- 2 5.0 1.0 2 38
r 8.800023 3 2 ack 40 ------- 2 5.0 1.0 2 38
+ 8.800023 2 1 ack 40 ------- 2 5.0 1.0 2 38
- 8.800023 2 1 ack 40 ------- 2 5.0 1.0 2 38
r 8.900068 0 2 tcp 1040 ------- 1 0.0 4.0 15 40
+ 8.900068 2 3 tcp 1040 ------- 1 0.0 4.0 15 40
- 8.900068 2 3 tcp 1040 ------- 1 0.0 4.0 15 40
r 8.900071 0 2 tcp 1040 ------- 1 0.0 4.0 16 41
+ 8.900071 2 3 tcp 1040 ------- 1 0.0 4.0 16 41
r 8.900085 0 2 tcp 1040 ------- 1 0.0 4.0 17 42
+ 8.900085 2 3 tcp 1040 ------- 1 0.0 4.0 17 42
- 8.900085 2 3 tcp 1040 ------- 1 0.0 4.0 16 41
r 8.900087 0 2 tcp 1040 ------- 1 0.0 4.0 18 43
+ 8.900087 2 3 tcp 1040 ------- 1 0.0 4.0 18 43
r 8.900102 0 2 tcp 1040 ------- 1 0.0 4.0 19 44
+ 8.900102 2 3 tcp 1040 ------- 1 0.0 4.0 19 44
- 8.900102 2 3 tcp 1040 ------- 1 0.0 4.0 17 42
r 8.900104 0 2 tcp 1040 ------- 1 0.0 4.0 20 45
+ 8.900104 2 3 tcp 1040 ------- 1 0.0 4.0 20 45
r 8.900118 0 2 tcp 1040 ------- 1 0.0 4.0 21 46
+ 8.900118 2 3 tcp 1040 ------- 1 0.0 4.0 21 46
- 8.900118 2 3 tcp 1040 ------- 1 0.0 4.0 18 43
r 8.90012 0 2 tcp 1040 ------- 1 0.0 4.0 22 47
+ 8.90012 2 3 tcp 1040 ------- 1 0.0 4.0 22 47
r 8.900135 0 2 tcp 1040 ------- 1 0.0 4.0 23 48
+ 8.900135 2 3 tcp 1040 ------- 1 0.0 4.0 23 48
- 8.900135 2 3 tcp 1040 ------- 1 0.0 4.0 19 44
r 8.900137 0 2 tcp 1040 ------- 1 0.0 4.0 24 49
+ 8.900137 2 3 tcp 1040 ------- 1 0.0 4.0 24 49
r 8.900152 0 2 tcp 1040 ------- 1 0.0 4.0 25 50
+ 8.900152 2 3 tcp 1040 ------- 1 0.0 4.0 25 50
d 8.900152 2 3 tcp 1040 ------- 1 0.0 4.0 25 50
- 8.900152 2 3 tcp 1040 ------- 1 0.0 4.0 20 45
r 8.900154 0 2 tcp 1040 ------- 1 0.0 4.0 26 51
+ 8.900154 2 3 tcp 1040 ------- 1 0.0 4.0 26 51
r 8.900168 0 2 tcp 1040 ------- 1 0.0 4.0 27 52
+ 8.900168 2 3 tcp 1040 ------- 1 0.0 4.0 27 52
d 8.900168 2 3 tcp 1040 ------- 1 0.0 4.0 27 52
- 8.900168 2 3 tcp 1040 ------- 1 0.0 4.0 21 46
r 8.90017 0 2 tcp 1040 ------- 1 0.0 4.0 28 53
+ 8.90017 2 3 tcp 1040 ------- 1 0.0 4.0 28 53
r 8.900185 0 2 tcp 1040 ------- 1 0.0 4.0 29 54
+ 8.900185 2 3 tcp 1040 ------- 1 0.0 4.0 29 54
d 8.900185 2 3 tcp 1040 ------- 1 0.0 4.0 29 54
- 8.900185 2 3 tcp 1040 ------- 1 0.0 4.0 22 47
r 8.900187 0 2 tcp 1040 ------- 1 0.0 4.0 30 55
+ 8.900187 2 3 tcp 1040 ------- 1 0.0 4.0 30 55
- 8.900202 2 3 tcp 1040 ------- 1 0.0 4.0 23 48
- 8.900218 2 3 tcp 1040 ------- 1 0.0 4.0 24 49
- 8.900235 2 3 tcp 1040 ------- 1 0.0 4.0 26 51
- 8.900252 2 3 tcp 1040 ------- 1 0.0 4.0 28 53
- 8.900268 2 3 tcp 1040 ------- 1 0.0 4.0 30 55
r 8.950085 2 3 tcp 1040 ------- 1 0.0 4.0 15 40
+ 8.950085 3 4 tcp 1040 ------- 1 0.0 4.0 15 40
- 8.950085 3 4 tcp 1040 ------- 1 0.0 4.0 15 40
r 8.950102 2 3 tcp 1040 ------- 1 0.0 4.0 16 41
+ 8.950102 3 4 tcp 1040 ------- 1 0.0 4.0 16 41
- 8.950102 3 4 tcp 1040 ------- 1 0.0 4.0 16 41
r 8.950118 2 3 tcp 1040 ------- 1 0.0 4.0 17 42
+ 8.950118 3 4 tcp 1040 ------- 1 0.0 4.0 17 42
- 8.950118 3 4 tcp 1040 ------- 1 0.0 4.0 17 42
r 8.950135 2 3 tcp 1040 ------- 1 0.0 4.0 18 43
+ 8.950135 3 4 tcp 1040 ------- 1 0.0 4.0 18 43
- 8.950135 3 4 tcp 1040 ------- 1 0.0 4.0 18 43
r 8.950152 2 3 tcp 1040 ------- 1 0.0 4.0 19 44
+ 8.950152 3 4 tcp 1040 ------- 1 0.0 4.0 19 44
- 8.950152 3 4 tcp 1040 ------- 1 0.0 4.0 19 44
r 8.950168 2 3 tcp 1040 ------- 1 0.0 4.0 20 45
+ 8.950168 3 4 tcp 1040 ------- 1 0.0 4.0 20 45
- 8.950168 3 4 tcp 1040 ------- 1 0.0 4.0 20 45
r 8.950185 2 3 tcp 1040 ------- 1 0.0 4.0 21 46
+ 8.950185 3 4 tcp 1040 ------- 1 0.0 4.0 21 46
- 8.950185 3 4 tcp 1040 ------- 1 0.0 4.0 21 46
r 8.950202 2 3 tcp 1040 ------- 1 0.0 4.0 22 47
+ 8.950202 3 4 tcp 1040 ------- 1 0.0 4.0 22 47
- 8.950202 3 4 tcp 1040 ------- 1 0.0 4.0 22 47
r 8.950218 2 3 tcp 1040 ------- 1 0.0 4.0 23 48
+ 8.950218 3 4 tcp 1040 ------- 1 0.0 4.0 23 48
- 8.950218 3 4 tcp 1040 ------- 1 0.0 4.0 23 48
r 8.950235 2 3 tcp 1040 ------- 1 0.0 4.0 24 49
+ 8.950235 3 4 tcp 1040 ------- 1 0.0 4.0 24 49
- 8.950235 3 4 tcp 1040 ------- 1 0.0 4.0 24 49
r 8.950252 2 3 tcp 1040 ------- 1 0.0 4.0 26 51
+ 8.950252 3 4 tcp 1040 ------- 1 0.0 4.0 26 51
- 8.950252 3 4 tcp 1040 ------- 1 0.0 4.0 26 51
r 8.950268 2 3 tcp 1040 ------- 1 0.0 4.0 28 53
+ 8.950268 3 4 tcp 1040 ------- 1 0.0 4.0 28 53
- 8.950268 3 4 tcp 1040 ------- 1 0.0 4.0 28 53
r 8.950285 2 3 tcp 1040 ------- 1 0.0 4.0 30 55
+ 8.950285 3 4 tcp 1040 ------- 1 0.0 4.0 30 55
- 8.950285 3 4 tcp 1040 ------- 1 0.0 4.0 30 55
r 9.050044 5 3 ack 40 ------- 2 5.0 1.0 3 39
+ 9.050044 3 2 ack 40 ------- 2 5.0 1.0 3 39
- 9.050044 3 2 ack 40 ------- 2 5.0 1.0 3 39
r 9.100045 3 2 ack 40 ------- 2 5.0 1.0 3 39
+ 9.100045 2 1 ack 40 ------- 2 5.0 1.0 3 39
- 9.100045 2 1 ack 40 ------- 2 5.0 1.0 3 39
r 9.450087 3 4 tcp 1040 ------- 1 0.0 4.0 15 40
+ 9.450087 4 3 ack 40 ------- 1 4.0 0.0 15 56
- 9.450087 4 3 ack 40 ------- 1 4.0 0.0 15 56
r 9.450104 3 4 tcp 1040 ------- 1 0.0 4.0 16 41
+ 9.450104 4 3 ack 40 ------- 1 4.0 0.0 16 57
- 9.450104 4 3 ack 40 ------- 1 4.0 0.0 16 57
r 9.45012 3 4 tcp 1040 ------- 1 0.0 4.0 17 42
+ 9.45012 4 3 ack 40 ------- 1 4.0 0.0 17 58
- 9.45012 4 3 ack 40 ------- 1 4.0 0.0 17 58
r 9.450137 3 4 tcp 1040 ------- 1 0.0 4.0 18 43
+ 9.450137 4 3 ack 40 ------- 1 4.0 0.0 18 59
- 9.450137 4 3 ack 40 ------- 1 4.0 0.0 18 59
r 9.450154 3 4 tcp 1040 ------- 1 0.0 4.0 19 44
+ 9.450154 4 3 ack 40 ------- 1 4.0 0.0 19 60
- 9.450154 4 3 ack 40 ------- 1 4.0 0.0 19 60
r 9.45017 3 4 tcp 1040 ------- 1 0.0 4.0 20 45
+ 9.45017 4 3 ack 40 ------- 1 4.0 0.0 20 61
- 9.45017 4 3 ack 40 ------- 1 4.0 0.0 20 61
r 9.450187 3 4 tcp 1040 ------- 1 0.0 4.0 21 46
+ 9.450187 4 3 ack 40 ------- 1 4.0 0.0 21 62
- 9.450187 4 3 ack 40 ------- 1 4.0 0.0 21 62
r 9.450204 3 4 tcp 1040 ------- 1 0.0 4.0 22 47
+ 9.450204 4 3 ack 40 ------- 1 4.0 0.0 22 63
- 9.450204 4 3 ack 40 ------- 1 4.0 0.0 22 63
r 9.45022 3 4 tcp 1040 ------- 1 0.0 4.0 23 48
+ 9.45022 4 3 ack 40 ------- 1 4.0 0.0 23 64
- 9.45022 4 3 ack 40 ------- 1 4.0 0.0 23 64
r 9.450237 3 4 tcp 1040 ------- 1 0.0 4.0 24 49
+ 9.450237 4 3 ack 40 ------- 1 4.0 0.0 24 65
- 9.450237 4 3 ack 40 ------- 1 4.0 0.0 24 65
r 9.450254 3 4 tcp 1040 ------- 1 0.0 4.0 26 51
+ 9.450254 4 3 ack 40 ------- 1 4.0 0.0 24 66
- 9.450254 4 3 ack 40 ------- 1 4.0 0.0 24 66
r 9.45027 3 4 tcp 1040 ------- 1 0.0 4.0 28 53
+ 9.45027 4 3 ack 40 ------- 1 4.0 0.0 24 67
- 9.45027 4 3 ack 40 ------- 1 4.0 0.0 24 67
r 9.450287 3 4 tcp 1040 ------- 1 0.0 4.0 30 55
+ 9.450287 4 3 ack 40 ------- 1 4.0 0.0 24 68
- 9.450287 4 3 ack 40 ------- 1 4.0 0.0 24 68
r 9.600023 2 1 ack 40 ------- 2 5.0 1.0 2 38
9.60002  1  0  5  0  ack_ 2
9.60002  1  0  5  0  cwnd_ 2.500 
+ 9.600023 1 2 tcp 1040 ------- 2 1.0 5.0 4 69
- 9.600023 1 2 tcp 1040 ------- 2 1.0 5.0 4 69
9.60002  1  0  5  0  maxseq_ 4
r 9.900045 2 1 ack 40 ------- 2 5.0 1.0 3 39
9.90004  1  0  5  0  ack_ 3
9.90004  1  0  5  0  cwnd_ 2.900 
+ 9.900045 1 2 tcp 1040 ------- 2 1.0 5.0 5 70
- 9.900045 1 2 tcp 1040 ------- 2 1.0 5.0 5 70
9.90004  1  0  5  0  maxseq_ 5
r 9.950087 4 3 ack 40 ------- 1 4.0 0.0 15 56
+ 9.950087 3 2 ack 40 ------- 1 4.0 0.0 15 56
- 9.950087 3 2 ack 40 ------- 1 4.0 0.0 15 56
r 9.950104 4 3 ack 40 ------- 1 4.0 0.0 16 57
+ 9.950104 3 2 ack 40 ------- 1 4.0 0.0 16 57
- 9.950104 3 2 ack 40 ------- 1 4.0 0.0 16 57
r 9.950121 4 3 ack 40 ------- 1 4.0 0.0 17 58
+ 9.950121 3 2 ack 40 ------- 1 4.0 0.0 17 58
- 9.950121 3 2 ack 40 ------- 1 4.0 0.0 17 58
r 9.950137 4 3 ack 40 ------- 1 4.0 0.0 18 59
+ 9.950137 3 2 ack 40 ------- 1 4.0 0.0 18 59
- 9.950137 3 2 ack 40 ------- 1 4.0 0.0 18 59
r 9.950154 4 3 ack 40 ------- 1 4.0 0.0 19 60
+ 9.950154 3 2 ack 40 ------- 1 4.0 0.0 19 60
- 9.950154 3 2 ack 40 ------- 1 4.0 0.0 19 60
r 9.95017 4 3 ack 40 ------- 1 4.0 0.0 20 61
+ 9.95017 3 2 ack 40 ------- 1 4.0 0.0 20 61
- 9.95017 3 2 ack 40 ------- 1 4.0 0.0 20 61
r 9.950187 4 3 ack 40 ------- 1 4.0 0.0 21 62
+ 9.950187 3 2 ack 40 ------- 1 4.0 0.0 21 62
- 9.950187 3 2 ack 40 ------- 1 4.0 0.0 21 62
r 9.950204 4 3 ack 40 ------- 1 4.0 0.0 22 63
+ 9.950204 3 2 ack 40 ------- 1 4.0 0.0 22 63
- 9.950204 3 2 ack 40 ------- 1 4.0 0.0 22 63
r 9.95022 4 3 ack 40 ------- 1 4.0 0.0 23 64
+ 9.95022 3 2 ack 40 ------- 1 4.0 0.0 23 64
- 9.95022 3 2 ack 40 ------- 1 4.0 0.0 23 64
r 9.950237 4 3 ack 40 ------- 1 4.0 0.0 24 65
+ 9.950237 3 2 ack 40 ------- 1 4.0 0.0 24 65
- 9.950237 3 2 ack 40 ------- 1 4.0 0.0 24 65
r 9.950254 4 3 ack 40 ------- 1 4.0 0.0 24 66
+ 9.950254 3 2 ack 40 ------- 1 4.0 0.0 24 66
- 9.950254 3 2 ack 40 ------- 1 4.0 0.0 24 66
r 9.95027 4 3 ack 40 ------- 1 4.0 0.0 24 67
+ 9.95027 3 2 ack 40 ------- 1 4.0 0.0 24 67
- 9.95027 3 2 ack 40 ------- 1 4.0 0.0 24 67
r 9.950287 4 3 ack 40 ------- 1 4.0 0.0 24 68
+ 9.950287 3 2 ack 40 ------- 1 4.0 0.0 24 68
- 9.950287 3 2 ack 40 ------- 1 4.0 0.0 24 68
r 10.000088 3 2 ack 40 ------- 1 4.0 0.0 15 56
+ 10.000088 2 0 ack 40 ------- 1 4.0 0.0 15 56
- 10.000088 2 0 ack 40 ------- 1 4.0 0.0 15 56
r 10.000105 3 2 ack 40 ------- 1 4.0 0.0 16 57
+ 10.000105 2 0 ack 40 ------- 1 4.0 0.0 16 57
- 10.000105 2 0 ack 40 ------- 1 4.0 0.0 16 57
r 10.000121 3 2 ack 40 ------- 1 4.0 0.0 17 58
+ 10.000121 2 0 ack 40 ------- 1 4.0 0.0 17 58
- 10.000121 2 0 ack 40 ------- 1 4.0 0.0 17 58
r 10.000138 3 2 ack 40 ------- 1 4.0 0.0 18 59
+ 10.000138 2 0 ack 40 ------- 1 4.0 0.0 18 59
- 10.000138 2 0 ack 40 ------- 1 4.0 0.0 18 59
r 10.000154 3 2 ack 40 ------- 1 4.0 0.0 19 60
+ 10.000154 2 0 ack 40 ------- 1 4.0 0.0 19 60
- 10.000154 2 0 ack 40 ------- 1 4.0 0.0 19 60
r 10.000171 3 2 ack 40 ------- 1 4.0 0.0 20 61
+ 10.000171 2 0 ack 40 ------- 1 4.0 0.0 20 61
- 10.000171 2 0 ack 40 ------- 1 4.0 0.0 20 61
r 10.000188 3 2 ack 40 ------- 1 4.0 0.0 21 62
+ 10.000188 2 0 ack 40 ------- 1 4.0 0.0 21 62
- 10.000188 2 0 ack 40 ------- 1 4.0 0.0 21 62
r 10.000204 3 2 ack 40 ------- 1 4.0 0.0 22 63
+ 10.000204 2 0 ack 40 ------- 1 4.0 0.0 22 63
- 10.000204 2 0 ack 40 ------- 1 4.0 0.0 22 63
r 10.000221 3 2 ack 40 ------- 1 4.0 0.0 23 64
+ 10.000221 2 0 ack 40 ------- 1 4.0 0.0 23 64