0.00000  0  0  4  0  cwnd_ 1.000 
0.00000  0  0  4  0  ssthresh_ 20
0.00000  0  0  4  0  ack_ -1
0.00000  0  0  4  0  maxseq_ -1
0.00000  0  0  4  0  rtt_ 0.000 
0.00000  1  0  5  0  cwnd_ 1.000 
0.00000  1  0  5  0  ssthresh_ 20
0.00000  1  0  5  0  ack_ -1
0.00000  1  0  5  0  maxseq_ -1
0.00000  1  0  5  0  rtt_ 0.000 
0.00000  0  0  4  0  ssthresh_ 1000
0.00000  1  0  5  0  ssthresh_ 1000
+ 0 1 2 tcp 1000 ------- 2 1.0 5.0 0 0
- 0 1 2 tcp 1000 ------- 2 1.0 5.0 0 0
0.00000  1  0  5  0  maxseq_ 0
+ 0 0 2 tcp 1000 ------- 1 0.0 4.0 0 1
- 0 0 2 tcp 1000 ------- 1 0.0 4.0 0 1
0.00000  0  0  4  0  maxseq_ 0
r 0.500002 0 2 tcp 1000 ------- 1 0.0 4.0 0 1
+ 0.500002 2 3 tcp 1000 ------- 1 0.0 4.0 0 1
- 0.500002 2 3 tcp 1000 ------- 1 0.0 4.0 0 1
r 0.550018 2 3 tcp 1000 ------- 1 0.0 4.0 0 1
+ 0.550018 3 4 tcp 1000 ------- 1 0.0 4.0 0 1
- 0.550018 3 4 tcp 1000 ------- 1 0.0 4.0 0 1
r 0.800002 1 2 tcp 1000 ------- 2 1.0 5.0 0 0
+ 0.800002 2 3 tcp 1000 ------- 2 1.0 5.0 0 0
- 0.800002 2 3 tcp 1000 ------- 2 1.0 5.0 0 0
r 0.850018 2 3 tcp 1000 ------- 2 1.0 5.0 0 0
+ 0.850018 3 5 tcp 1000 ------- 2 1.0 5.0 0 0
- 0.850018 3 5 tcp 1000 ------- 2 1.0 5.0 0 0
r 1.05002 3 4 tcp 1000 ------- 1 0.0 4.0 0 1
+ 1.05002 4 3 ack 40 ------- 1 4.0 0.0 0 2
- 1.05002 4 3 ack 40 ------- 1 4.0 0.0 0 2
r 1.55002 4 3 ack 40 ------- 1 4.0 0.0 0 2
+ 1.55002 3 2 ack 40 ------- 1 4.0 0.0 0 2
- 1.55002 3 2 ack 40 ------- 1 4.0 0.0 0 2
r 1.600021 3 2 ack 40 ------- 1 4.0 0.0 0 2
+ 1.600021 2 0 ack 40 ------- 1 4.0 0.0 0 2
- 1.600021 2 0 ack 40 ------- 1 4.0 0.0 0 2
r 1.65002 3 5 tcp 1000 ------- 2 1.0 5.0 0 0
+ 1.65002 5 3 ack 40 ------- 2 5.0 1.0 0 3
- 1.65002 5 3 ack 40 ------- 2 5.0 1.0 0 3
r 2.100021 2 0 ack 40 ------- 1 4.0 0.0 0 2
2.10002  0  0  4  0  ack_ 0
2.10002  0  0  4  0  rtt_ 2.100 
+ 2.100021 0 2 tcp 1000 ------- 1 0.0 4.0 1 4
- 2.100021 0 2 tcp 1000 ------- 1 0.0 4.0 1 4
2.10002  0  0  4  0  maxseq_ 1
r 2.45002 5 3 ack 40 ------- 2 5.0 1.0 0 3
+ 2.45002 3 2 ack 40 ------- 2 5.0 1.0 0 3
- 2.45002 3 2 ack 40 ------- 2 5.0 1.0 0 3
r 2.500021 3 2 ack 40 ------- 2 5.0 1.0 0 3
+ 2.500021 2 1 ack 40 ------- 2 5.0 1.0 0 3
- 2.500021 2 1 ack 40 ------- 2 5.0 1.0 0 3
r 2.600023 0 2 tcp 1000 ------- 1 0.0 4.0 1 4
+ 2.600023 2 3 tcp 1000 ------- 1 0.0 4.0 1 4
- 2.600023 2 3 tcp 1000 ------- 1 0.0 4.0 1 4
r 2.650039 2 3 tcp 1000 ------- 1 0.0 4.0 1 4
+ 2.650039 3 4 tcp 1000 ------- 1 0.0 4.0 1 4
- 2.650039 3 4 tcp 1000 ------- 1 0.0 4.0 1 4
3.00000  1  0  5  0  ssthresh_ 0
3.00000  1  0  5  0  ssthresh_ 2
3.00000  1  0  5  0  cwnd_ 2.000 
+ 3 1 2 tcp 1000 ------- 2 1.0 5.0 0 5
- 3 1 2 tcp 1000 ------- 2 1.0 5.0 0 5
+ 3 1 2 tcp 1000 ------- 2 1.0 5.0 1 6
3.00000  1  0  5  0  maxseq_ 1
- 3.000002 1 2 tcp 1000 ------- 2 1.0 5.0 1 6
r 3.150041 3 4 tcp 1000 ------- 1 0.0 4.0 1 4
+ 3.150041 4 3 ack 40 ------- 1 4.0 0.0 1 7
- 3.150041 4 3 ack 40 ------- 1 4.0 0.0 1 7
r 3.300021 2 1 ack 40 ------- 2 5.0 1.0 0 3
3.30002  1  0  5  0  ack_ 0
3.30002  1  0  5  0  cwnd_ 2.500 
+ 3.300021 1 2 tcp 1000 ------- 2 1.0 5.0 2 8
- 3.300021 1 2 tcp 1000 ------- 2 1.0 5.0 2 8
3.30002  1  0  5  0  maxseq_ 2
r 3.650041 4 3 ack 40 ------- 1 4.0 0.0 1 7
+ 3.650041 3 2 ack 40 ------- 1 4.0 0.0 1 7
- 3.650041 3 2 ack 40 ------- 1 4.0 0.0 1 7
r 3.700042 3 2 ack 40 ------- 1 4.0 0.0 1 7
+ 3.700042 2 0 ack 40 ------- 1 4.0 0.0 1 7
- 3.700042 2 0 ack 40 ------- 1 4.0 0.0 1 7
r 3.800002 1 2 tcp 1000 ------- 2 1.0 5.0 0 5
+ 3.800002 2 3 tcp 1000 ------- 2 1.0 5.0 0 5
- 3.800002 2 3 tcp 1000 ------- 2 1.0 5.0 0 5
r 3.800004 1 2 tcp 1000 ------- 2 1.0 5.0 1 6
+ 3.800004 2 3 tcp 1000 ------- 2 1.0 5.0 1 6
- 3.800018 2 3 tcp 1000 ------- 2 1.0 5.0 1 6
r 3.850018 2 3 tcp 1000 ------- 2 1.0 5.0 0 5
+ 3.850018 3 5 tcp 1000 ------- 2 1.0 5.0 0 5
- 3.850018 3 5 tcp 1000 ------- 2 1.0 5.0 0 5
r 3.850034 2 3 tcp 1000 ------- 2 1.0 5.0 1 6
+ 3.850034 3 5 tcp 1000 ------- 2 1.0 5.0 1 6
- 3.850034 3 5 tcp 1000 ------- 2 1.0 5.0 1 6
r 4.100023 1 2 tcp 1000 ------- 2 1.0 5.0 2 8
+ 4.100023 2 3 tcp 1000 ------- 2 1.0 5.0 2 8
- 4.100023 2 3 tcp 1000 ------- 2 1.0 5.0 2 8
r 4.150039 2 3 tcp 1000 ------- 2 1.0 5.0 2 8
+ 4.150039 3 5 tcp 1000 ------- 2 1.0 5.0 2 8
- 4.150039 3 5 tcp 1000 ------- 2 1.0 5.0 2 8
r 4.200042 2 0 ack 40 ------- 1 4.0 0.0 1 7
4.20004  0  0  4  0  cwnd_ 2.000 
4.20004  0  0  4  0  ack_ 1
4.20004  0  0  4  0  cwnd_ 3.000 
+ 4.200042 0 2 tcp 1000 ------- 1 0.0 4.0 2 9
- 4.200042 0 2 tcp 1000 ------- 1 0.0 4.0 2 9
4.20004  0  0  4  0  maxseq_ 2
+ 4.200042 0 2 tcp 1000 ------- 1 0.0 4.0 3 10
4.20004  0  0  4  0  maxseq_ 3
+ 4.200042 0 2 tcp 1000 ------- 1 0.0 4.0 4 11
4.20004  0  0  4  0  maxseq_ 4
- 4.200044 0 2 tcp 1000 ------- 1 0.0 4.0 3 10
- 4.200046 0 2 tcp 1000 ------- 1 0.0 4.0 4 11
r 4.65002 3 5 tcp 1000 ------- 2 1.0 5.0 0 5
+ 4.65002 5 3 ack 40 ------- 2 5.0 1.0 0 12
- 4.65002 5 3 ack 40 ------- 2 5.0 1.0 0 12
r 4.650036 3 5 tcp 1000 ------- 2 1.0 5.0 1 6
+ 4.650036 5 3 ack 40 ------- 2 5.0 1.0 1 13
- 4.650036 5 3 ack 40 ------- 2 5.0 1.0 1 13
r 4.700044 0 2 tcp 1000 ------- 1 0.0 4.0 2 9
+ 4.700044 2 3 tcp 1000 ------- 1 0.0 4.0 2 9
- 4.700044 2 3 tcp 1000 ------- 1 0.0 4.0 2 9
r 4.700046 0 2 tcp 1000 ------- 1 0.0 4.0 3 10
+ 4.700046 2 3 tcp 1000 ------- 1 0.0 4.0 3 10
r 4.700048 0 2 tcp 1000 ------- 1 0.0 4.0 4 11
+ 4.700048 2 3 tcp 1000 ------- 1 0.0 4.0 4 11
- 4.70006 2 3 tcp 1000 ------- 1 0.0 4.0 3 10
- 4.700076 2 3 tcp 1000 ------- 1 0.0 4.0 4 11
r 4.75006 2 3 tcp 1000 ------- 1 0.0 4.0 2 9
+ 4.75006 3 4 tcp 1000 ------- 1 0.0 4.0 2 9
- 4.75006 3 4 tcp 1000 ------- 1 0.0 4.0 2 9
r 4.750076 2 3 tcp 1000 ------- 1 0.0 4.0 3 10
+ 4.750076 3 4 tcp 1000 ------- 1 0.0 4.0 3 10
- 4.750076 3 4 tcp 1000 ------- 1 0.0 4.0 3 10
r 4.750092 2 3 tcp 1000 ------- 1 0.0 4.0 4 11
+ 4.750092 3 4 tcp 1000 ------- 1 0.0 4.0 4 11
- 4.750092 3 4 tcp 1000 ------- 1 0.0 4.0 4 11
r 4.950041 3 5 tcp 1000 ------- 2 1.0 5.0 2 8
+ 4.950041 5 3 ack 40 ------- 2 5.0 1.0 2 14
- 4.950041 5 3 ack 40 ------- 2 5.0 1.0 2 14
r 5.250062 3 4 tcp 1000 ------- 1 0.0 4.0 2 9
+ 5.250062 4 3 ack 40 ------- 1 4.0 0.0 2 15
- 5.250062 4 3 ack 40 ------- 1 4.0 0.0 2 15
r 5.250078 3 4 tcp 1000 ------- 1 0.0 4.0 3 10
+ 5.250078 4 3 ack 40 ------- 1 4.0 0.0 3 16
- 5.250078 4 3 ack 40 ------- 1 4.0 0.0 3 16
r 5.250094 3 4 tcp 1000 ------- 1 0.0 4.0 4 11
+ 5.250094 4 3 ack 40 ------- 1 4.0 0.0 4 17
- 5.250094 4 3 ack 40 ------- 1 4.0 0.0 4 17
r 5.45002 5 3 ack 40 ------- 2 5.0 1.0 0 12
+ 5.45002 3 2 ack 40 ------- 2 5.0 1.0 0 12
- 5.45002 3 2 ack 40 ------- 2 5.0 1.0 0 12
r 5.450036 5 3 ack 40 ------- 2 5.0 1.0 1 13
+ 5.450036 3 2 ack 40 ------- 2 5.0 1.0 1 13
- 5.450036 3 2 ack 40 ------- 2 5.0 1.0 1 13
r 5.500021 3 2 ack 40 ------- 2 5.0 1.0 0 12
+ 5.500021 2 1 ack 40 ------- 2 5.0 1.0 0 12
- 5.500021 2 1 ack 40 ------- 2 5.0 1.0 0 12
r 5.500037 3 2 ack 40 ------- 2 5.0 1.0 1 13
+ 5.500037 2 1 ack 40 ------- 2 5.0 1.0 1 13
- 5.500037 2 1 ack 40 ------- 2 5.0 1.0 1 13
r 5.750041 5 3 ack 40 ------- 2 5.0 1.0 2 14
+ 5.750041 3 2 ack 40 ------- 2 5.0 1.0 2 14
- 5.750041 3 2 ack 40 ------- 2 5.0 1.0 2 14
r 5.750062 4 3 ack 40 ------- 1 4.0 0.0 2 15
+ 5.750062 3 2 ack 40 ------- 1 4.0 0.0 2 15
- 5.750062 3 2 ack 40 ------- 1 4.0 0.0 2 15
r 5.750078 4 3 ack 40 ------- 1 4.0 0.0 3 16
+ 5.750078 3 2 ack 40 ------- 1 4.0 0.0 3 16
- 5.750078 3 2 ack 40 ------- 1 4.0 0.0 3 16
r 5.750094 4 3 ack 40 ------- 1 4.0 0.0 4 17
+ 5.750094 3 2 ack 40 ------- 1 4.0 0.0 4 17
- 5.750094 3 2 ack 40 ------- 1 4.0 0.0 4 17
r 5.800042 3 2 ack 40 ------- 2 5.0 1.0 2 14
+ 5.800042 2 1 ack 40 ------- 2 5.0 1.0 2 14
- 5.800042 2 1 ack 40 ------- 2 5.0 1.0 2 14
r 5.800062 3 2 ack 40 ------- 1 4.0 0.0 2 15
+ 5.800062 2 0 ack 40 ------- 1 4.0 0.0 2 15
- 5.800062 2 0 ack 40 ------- 1 4.0 0.0 2 15
r 5.800078 3 2 ack 40 ------- 1 4.0 0.0 3 16
+ 5.800078 2 0 ack 40 ------- 1 4.0 0.0 3 16
- 5.800078 2 0 ack 40 ------- 1 4.0 0.0 3 16
r 5.800094 3 2 ack 40 ------- 1 4.0 0.0 4 17
+ 5.800094 2 0 ack 40 ------- 1 4.0 0.0 4 17
- 5.800094 2 0 ack 40 ------- 1 4.0 0.0 4 17
r 6.300021 2 1 ack 40 ------- 2 5.0 1.0 0 12
r 6.300037 2 1 ack 40 ------- 2 5.0 1.0 1 13
6.30004  1  0  5  0  cwnd_ 2.000 
6.30004  1  0  5  0  ack_ 1
6.30004  1  0  5  0  rtt_ 3.300 
6.30004  1  0  5  0  cwnd_ 2.500 
+ 6.300037 1 2 tcp 1000 ------- 2 1.0 5.0 3 18
- 6.300037 1 2 tcp 1000 ------- 2 1.0 5.0 3 18
6.30004  1  0  5  0  maxseq_ 3
r 6.300062 2 0 ack 40 ------- 1 4.0 0.0 2 15
6.30006  0  0  4  0  ack_ 2
+ 6.300062 0 2 tcp 1000 ------- 1 0.0 4.0 5 19
- 6.300062 0 2 tcp 1000 ------- 1 0.0 4.0 5 19
6.30006  0  0  4  0  maxseq_ 5
r 6.300078 2 0 ack 40 ------- 1 4.0 0.0 3 16
6.30008  0  0  4  0  ack_ 3
+ 6.300078 0 2 tcp 1000 ------- 1 0.0 4.0 6 20
- 6.300078 0 2 tcp 1000 ------- 1 0.0 4.0 6 20
6.30008  0  0  4  0  maxseq_ 6
r 6.300094 2 0 ack 40 ------- 1 4.0 0.0 4 17
6.30009  0  0  4  0  ack_ 4
+ 6.300094 0 2 tcp 1000 ------- 1 0.0 4.0 7 21
- 6.300094 0 2 tcp 1000 ------- 1 0.0 4.0 7 21
6.30009  0  0  4  0  maxseq_ 7
r 6.600042 2 1 ack 40 ------- 2 5.0 1.0 2 14
6.60004  1  0  5  0  ack_ 2
+ 6.600042 1 2 tcp 1000 ------- 2 1.0 5.0 4 22
- 6.600042 1 2 tcp 1000 ------- 2 1.0 5.0 4 22
6.60004  1  0  5  0  maxseq_ 4
r 6.800064 0 2 tcp 1000 ------- 1 0.0 4.0 5 19
+ 6.800064 2 3 tcp 1000 ------- 1 0.0 4.0 5 19
- 6.800064 2 3 tcp 1000 ------- 1 0.0 4.0 5 19
r 6.80008 0 2 tcp 1000 ------- 1 0.0 4.0 6 20
+ 6.80008 2 3 tcp 1000 ------- 1 0.0 4.0 6 20
- 6.80008 2 3 tcp 1000 ------- 1 0.0 4.0 6 20
r 6.800096 0 2 tcp 1000 ------- 1 0.0 4.0 7 21
+ 6.800096 2 3 tcp 1000 ------- 1 0.0 4.0 7 21
- 6.800096 2 3 tcp 1000 ------- 1 0.0 4.0 7 21
r 6.85008 2 3 tcp 1000 ------- 1 0.0 4.0 5 19
+ 6.85008 3 4 tcp 1000 ------- 1 0.0 4.0 5 19
- 6.85008 3 4 tcp 1000 ------- 1 0.0 4.0 5 19
r 6.850096 2 3 tcp 1000 ------- 1 0.0 4.0 6 20
+ 6.850096 3 4 tcp 1000 ------- 1 0.0 4.0 6 20
- 6.850096 3 4 tcp 1000 ------- 1 0.0 4.0 6 20
r 6.850112 2 3 tcp 1000 ------- 1 0.0 4.0 7 21
+ 6.850112 3 4 tcp 1000 ------- 1 0.0 4.0 7 21
- 6.850112 3 4 tcp 1000 ------- 1 0.0 4.0 7 21
r 7.100039 1 2 tcp 1000 ------- 2 1.0 5.0 3 18
+ 7.100039 2 3 tcp 1000 ------- 2 1.0 5.0 3 18
- 7.100039 2 3 tcp 1000 ------- 2 1.0 5.0 3 18
r 7.150055 2 3 tcp 1000 ------- 2 1.0 5.0 3 18
+ 7.150055 3 5 tcp 1000 ------- 2 1.0 5.0 3 18
- 7.150055 3 5 tcp 1000 ------- 2 1.0 5.0 3 18
r 7.350082 3 4 tcp 1000 ------- 1 0.0 4.0 5 19
+ 7.350082 4 3 ack 40 ------- 1 4.0 0.0 5 23
- 7.350082 4 3 ack 40 ------- 1 4.0 0.0 5 23
r 7.350098 3 4 tcp 1000 ------- 1 0.0 4.0 6 20
+ 7.350098 4 3 ack 40 ------- 1 4.0 0.0 6 24
- 7.350098 4 3 ack 40 ------- 1 4.0 0.0 6 24
r 7.350114 3 4 tcp 1000 ------- 1 0.0 4.0 7 21
+ 7.350114 4 3 ack 40 ------- 1 4.0 0.0 7 25
- 7.350114 4 3 ack 40 ------- 1 4.0 0.0 7 25
r 7.400044 1 2 tcp 1000 ------- 2 1.0 5.0 4 22
+ 7.400044 2 3 tcp 1000 ------- 2 1.0 5.0 4 22
- 7.400044 2 3 tcp 1000 ------- 2 1.0 5.0 4 22
r 7.45006 2 3 tcp 1000 ------- 2 1.0 5.0 4 22
+ 7.45006 3 5 tcp 1000 ------- 2 1.0 5.0 4 22
- 7.45006 3 5 tcp 1000 ------- 2 1.0 5.0 4 22
r 7.850082 4 3 ack 40 ------- 1 4.0 0.0 5 23
+ 7.850082 3 2 ack 40 ------- 1 4.0 0.0 5 23
- 7.850082 3 2 ack 40 ------- 1 4.0 0.0 5 23
r 7.850098 4 3 ack 40 ------- 1 4.0 0.0 6 24
+ 7.850098 3 2 ack 40 ------- 1 4.0 0.0 6 24
- 7.850098 3 2 ack 40 ------- 1 4.0 0.0 6 24
r 7.850114 4 3 ack 40 ------- 1 4.0 0.0 7 25
+ 7.850114 3 2 ack 40 ------- 1 4.0 0.0 7 25
- 7.850114 3 2 ack 40 ------- 1 4.0 0.0 7 25
r 7.900083 3 2 ack 40 ------- 1 4.0 0.0 5 23
+ 7.900083 2 0 ack 40 ------- 1 4.0 0.0 5 23
- 7.900083 2 0 ack 40 ------- 1 4.0 0.0 5 23
r 7.900099 3 2 ack 40 ------- 1 4.0 0.0 6 24
+ 7.900099 2 0 ack 40 ------- 1 4.0 0.0 6 24
- 7.900099 2 0 ack 40 ------- 1 4.0 0.0 6 24
r 7.900115 3 2 ack 40 ------- 1 4.0 0.0 7 25
+ 7.900115 2 0 ack 40 ------- 1 4.0 0.0 7 25
- 7.900115 2 0 ack 40 ------- 1 4.0 0.0 7 25
r 7.950057 3 5 tcp 1000 ------- 2 1.0 5.0 3 18
+ 7.950057 5 3 ack 40 ------- 2 5.0 1.0 3 26
- 7.950057 5 3 ack 40 ------- 2 5.0 1.0 3 26
r 8.250062 3 5 tcp 1000 ------- 2 1.0 5.0 4 22
+ 8.250062 5 3 ack 40 ------- 2 5.0 1.0 4 27
- 8.250062 5 3 ack 40 ------- 2 5.0 1.0 4 27
r 8.400083 2 0 ack 40 ------- 1 4.0 0.0 5 23
8.40008  0  0  4  0  ack_ 5
8.40008  0  0  4  0  cwnd_ 4.000 
+ 8.400083 0 2 tcp 1000 ------- 1 0.0 4.0 8 28
- 8.400083 0 2 tcp 1000 ------- 1 0.0 4.0 8 28
8.40008  0  0  4  0  maxseq_ 8
+ 8.400083 0 2 tcp 1000 ------- 1 0.0 4.0 9 29
8.40008  0  0  4  0  maxseq_ 9
- 8.400085 0 2 tcp 1000 ------- 1 0.0 4.0 9 29
r 8.400099 2 0 ack 40 ------- 1 4.0 0.0 6 24
8.40010  0  0  4  0  ack_ 6
8.40010  0  0  4  0  cwnd_ 5.000 
+ 8.400099 0 2 tcp 1000 ------- 1 0.0 4.0 10 30
- 8.400099 0 2 tcp 1000 ------- 1 0.0 4.0 10 30
8.40010  0  0  4  0  maxseq_ 10
+ 8.400099 0 2 tcp 1000 ------- 1 0.0 4.0 11 31
8.40010  0  0  4  0  maxseq_ 11
- 8.400101 0 2 tcp 1000 ------- 1 0.0 4.0 11 31
r 8.400115 2 0 ack 40 ------- 1 4.0 0.0 7 25
8.40012  0  0  4  0  ack_ 7
8.40012  0  0  4  0  cwnd_ 6.000 
+ 8.400115 0 2 tcp 1000 ------- 1 0.0 4.0 12 32
- 8.400115 0 2 tcp 1000 ------- 1 0.0 4.0 12 32
8.40012  0  0  4  0  maxseq_ 12
+ 8.400115 0 2 tcp 1000 ------- 1 0.0 4.0 13 33
8.40012  0  0  4  0  maxseq_ 13
- 8.400117 0 2 tcp 1000 ------- 1 0.0 4.0 13 33
r 8.750057 5 3 ack 40 ------- 2 5.0 1.0 3 26
+ 8.750057 3 2 ack 40 ------- 2 5.0 1.0 3 26
- 8.750057 3 2 ack 40 ------- 2 5.0 1.0 3 26
r 8.800058 3 2 ack 40 ------- 2 5.0 1.0 3 26
+ 8.800058 2 1 ack 40 ------- 2 5.0 1.0 3 26
- 8.800058 2 1 ack 40 ------- 2 5.0 1.0 3 26
r 8.900085 0 2 tcp 1000 ------- 1 0.0 4.0 8 28
+ 8.900085 2 3 tcp 1000 ------- 1 0.0 4.0 8 28
- 8.900085 2 3 tcp 1000 ------- 1 0.0 4.0 8 28
r 8.900087 0 2 tcp 1000 ------- 1 0.0 4.0 9 29
+ 8.900087 2 3 tcp 1000 ------- 1 0.0 4.0 9 29
r 8.900101 0 2 tcp 1000 ------- 1 0.0 4.0 10 30
+ 8.900101 2 3 tcp 1000 ------- 1 0.0 4.0 10 30
- 8.900101 2 3 tcp 1000 ------- 1 0.0 4.0 9 29
r 8.900103 0 2 tcp 1000 ------- 1 0.0 4.0 11 31
+ 8.900103 2 3 tcp 1000 ------- 1 0.0 4.0 11 31
r 8.900117 0 2 tcp 1000 ------- 1 0.0 4.0 12 32
+ 8.900117 2 3 tcp 1000 ------- 1 0.0 4.0 12 32
- 8.900117 2 3 tcp 1000 ------- 1 0.0 4.0 10 30
r 8.900119 0 2 tcp 1000 ------- 1 0.0 4.0 13 33
+ 8.900119 2 3 tcp 1000 ------- 1 0.0 4.0 13 33
- 8.900133 2 3 tcp 1000 ------- 1 0.0 4.0 11 31
- 8.900149 2 3 tcp 1000 ------- 1 0.0 4.0 12 32
- 8.900165 2 3 tcp 1000 ------- 1 0.0 4.0 13 33
r 8.950101 2 3 tcp 1000 ------- 1 0.0 4.0 8 28
+ 8.950101 3 4 tcp 1000 ------- 1 0.0 4.0 8 28
- 8.950101 3 4 tcp 1000 ------- 1 0.0 4.0 8 28
r 8.950117 2 3 tcp 1000 ------- 1 0.0 4.0 9 29
+ 8.950117 3 4 tcp 1000 ------- 1 0.0 4.0 9 29
- 8.950117 3 4 tcp 1000 ------- 1 0.0 4.0 9 29
r 8.950133 2 3 tcp 1000 ------- 1 0.0 4.0 10 30
+ 8.950133 3 4 tcp 1000 ------- 1 0.0 4.0 10 30
- 8.950133 3 4 tcp 1000 ------- 1 0.0 4.0 10 30
r 8.950149 2 3 tcp 1000 ------- 1 0.0 4.0 11 31
+ 8.950149 3 4 tcp 1000 ------- 1 0.0 4.0 11 31
- 8.950149 3 4 tcp 1000 ------- 1 0.0 4.0 11 31
r 8.950165 2 3 tcp 1000 ------- 1 0.0 4.0 12 32
+ 8.950165 3 4 tcp 1000 ------- 1 0.0 4.0 12 32
- 8.950165 3 4 tcp 1000 ------- 1 0.0 4.0 12 32
r 8.950181 2 3 tcp 1000 ------- 1 0.0 4.0 13 33
+ 8.950181 3 4 tcp 1000 ------- 1 0.0 4.0 13 33
- 8.950181 3 4 tcp 1000 ------- 1 0.0 4.0 13 33
r 9.050062 5 3 ack 40 ------- 2 5.0 1.0 4 27
+ 9.050062 3 2 ack 40 ------- 2 5.0 1.0 4 27
- 9.050062 3 2 ack 40 ------- 2 5.0 1.0 4 27
r 9.100062 3 2 ack 40 ------- 2 5.0 1.0 4 27
+ 9.100062 2 1 ack 40 ------- 2 5.0 1.0 4 27
- 9.100062 2 1 ack 40 ------- 2 5.0 1.0 4 27
r 9.450103 3 4 tcp 1000 ------- 1 0.0 4.0 8 28
+ 9.450103 4 3 ack 40 ------- 1 4.0 0.0 8 34
- 9.450103 4 3 ack 40 ------- 1 4.0 0.0 8 34
r 9.450119 3 4 tcp 1000 ------- 1 0.0 4.0 9 29
+ 9.450119 4 3 ack 40 ------- 1 4.0 0.0 9 35
- 9.450119 4 3 ack 40 ------- 1 4.0 0.0 9 35
r 9.450135 3 4 tcp 1000 ------- 1 0.0 4.0 10 30
+ 9.450135 4 3 ack 40 ------- 1 4.0 0.0 10 36
- 9.450135 4 3 ack 40 ------- 1 4.0 0.0 10 36
r 9.450151 3 4 tcp 1000 ------- 1 0.0 4.0 11 31
+ 9.450151 4 3 ack 40 ------- 1 4.0 0.0 11 37
- 9.450151 4 3 ack 40 ------- 1 4.0 0.0 11 37
r 9.450167 3 4 tcp 1000 ------- 1 0.0 4.0 12 32
+ 9.450167 4 3 ack 40 ------- 1 4.0 0.0 12 38
- 9.450167 4 3 ack 40 ------- 1 4.0 0.0 12 38
r 9.450183 3 4 tcp 1000 ------- 1 0.0 4.0 13 33
+ 9.450183 4 3 ack 40 ------- 1 4.0 0.0 13 39
- 9.450183 4 3 ack 40 ------- 1 4.0 0.0 13 39
r 9.600058 2 1 ack 40 ------- 2 5.0 1.0 3 26
9.60006  1  0  5  0  ack_ 3
+ 9.600058 1 2 tcp 1000 ------- 2 1.0 5.0 5 40
- 9.600058 1 2 tcp 1000 ------- 2 1.0 5.0 5 40
9.60006  1  0  5  0  maxseq_ 5
r 9.900062 2 1 ack 40 ------- 2 5.0 1.0 4 27
9.90006  1  0  5  0  ack_ 4
+ 9.900062 1 2 tcp 1000 ------- 2 1.0 5.0 6 41
- 9.900062 1 2 tcp 1000 ------- 2 1.0 5.0 6 41
9.90006  1  0  5  0  maxseq_ 6
r 9.950103 4 3 ack 40 ------- 1 4.0 0.0 8 34
+ 9.950103 3 2 ack 40 ------- 1 4.0 0.0 8 34
- 9.950103 3 2 ack 40 ------- 1 4.0 0.0 8 34
r 9.950119 4 3 ack 40 ------- 1 4.0 0.0 9 35
+ 9.950119 3 2 ack 40 ------- 1 4.0 0.0 9 35
- 9.950119 3 2 ack 40 ------- 1 4.0 0.0 9 35
r 9.950135 4 3 ack 40 ------- 1 4.0 0.0 10 36
+ 9.950135 3 2 ack 40 ------- 1 4.0 0.0 10 36
- 9.950135 3 2 ack 40 ------- 1 4.0 0.0 10 36
r 9.950151 4 3 ack 40 ------- 1 4.0 0.0 11 37
+ 9.950151 3 2 ack 40 ------- 1 4.0 0.0 11 37
- 9.950151 3 2 ack 40 ------- 1 4.0 0.0 11 37
r 9.950167 4 3 ack 40 ------- 1 4.0 0.0 12 38
+ 9.950167 3 2 ack 40 ------- 1 4.0 0.0 12 38
- 9.950167 3 2 ack 40 ------- 1 4.0 0.0 12 38
r 9.950183 4 3 ack 40 ------- 1 4.0 0.0 13 39
+ 9.950183 3 2 ack 40 ------- 1 4.0 0.0 13 39
- 9.950183 3 2 ack 40 ------- 1 4.0 0.0 13 39
r 10.000104 3 2 ack 40 ------- 1 4.0 0.0 8 34
+ 10.000104 2 0 ack 40 ------- 1 4.0 0.0 8 34
- 10.000104 2 0 ack 40 ------- 1 4.0 0.0 8 34
r 10.00012 3 2 ack 40 ------- 1 4.0 0.0 9 35
+ 10.00012 2 0 ack 40 ------- 1 4.0 0.0 9 35
- 10.00012 2 0 ack 40 ------- 1 4.0 0.0 9 35
r 10.000136 3 2 ack 40 ------- 1 4.0 0.0 10 36
+ 10.000136 2 0 ack 40 ------- 1 4.0 0.0 10 36
- 10.000136 2 0 ack 40 ------- 1 4.0 0.0 10 36
r 10.000152 3 2 ack 40 ------- 1 4.0 0.0 11 37
+ 10.000152 2 0 ack 40 ------- 1 4.0 0.0 11 37
- 10.000152 2 0 ack 40 ------- 1 4.0 0.0 11 37
r 10.000168 3 2 ack 40 ------- 1 4.0 0.0 12 38
+ 10.000168 2 0 ack 40 ------- 1 4.0 0.0 12 38
- 10.000168 2 0 ack 40 ------- 1 4.0 0.0 12 38
r 10.000184 3 2 ack 40 ------- 1 4.0 0.0 13 39
+ 10.000184 2 0 ack 40 ------- 1 4.0 0.0 13 39
- 10.000184 2 0 ack 40 ------- 1 4.0 0.0 13 39
r 10.40006 1 2 tcp 1000 ------- 2 1.0 5.0 5 40
+ 10.40006 2 3 tcp 1000 ------- 2 1.0 5.0 5 40
- 10.40006 2 3 tcp 1000 ------- 2 1.0 5.0 5 40
r 10.450076 2 3 tcp 1000 ------- 2 1.0 5.0 5 40
+ 10.450076 3 5 tcp 1000 ------- 2 1.0 5.0 5 40
- 10.450076 3 5 tcp 1000 ------- 2 1.0 5.0 5 40
r 10.500104 2 0 ack 40 ------- 1 4.0 0.0 8 34
10.50010 0  0  4  0  ack_ 8
+ 10.500104 0 2 tcp 1000 ------- 1 0.0 4.0 14 42
- 10.500104 0 2 tcp 1000 ------- 1 0.0 4.0 14 42
10.50010 0  0  4  0  maxseq_ 14
r 10.50012 2 0 ack 40 ------- 1 4.0 0.0 9 35
10.50012 0  0  4  0  ack_ 9
+ 10.50012 0 2 tcp 1000 ------- 1 0.0 4.0 15 43
- 10.50012 0 2 tcp 1000 ------- 1 0.0 4.0 15 43
10.50012 0  0  4  0  maxseq_ 15
r 10.500136 2 0 ack 40 ------- 1 4.0 0.0 10 36
10.50014 0  0  4  0  ack_ 10
+ 10.500136 0 2 tcp 1000 ------- 1 0.0 4.0 16 44
- 10.500136 0 2 tcp 1000 ------- 1 0.0 4.0 16 44
10.50014 0  0  4  0  maxseq_ 16
r 10.500152 2 0 ack 40 ------- 1 4.0 0.0 11 37
10.50015 0  0  4  0  ack_ 11
+ 10.500152 0 2 tcp 1000 ------- 1 0.0 4.0 17 45
- 10.500152 0 2 tcp 1000 ------- 1 0.0 4.0 17 45
10.50015 0  0  4  0  maxseq_ 17
r 10.500168 2 0 ack 40 ------- 1 4.0 0.0 12 38
10.50017 0  0  4  0  ack_ 12
+ 10.500168 0 2 tcp 1000 ------- 1 0.0 4.0 18 46
- 10.500168 0 2 tcp 1000 ------- 1 0.0 4.0 18 46
10.50017 0  0  4  0  maxseq_ 18
r 10.500184 2 0 ack 40 ------- 1 4.0 0.0 13 39
10.50018 0  0  4  0  ack_ 13
+ 10.500184 0 2 tcp 1000 ------- 1 0.0 4.0 19 47
- 10.500184 0 2 tcp 1000 ------- 1 0.0 4.0 19 47
10.50018 0  0  4  0  maxseq_ 19
r 10.700064 1 2 tcp 1000 ------- 2 1.0 5.0 6 41
+ 10.700064 2 3 tcp 1000 ------- 2 1.0 5.0 6 41
- 10.700064 2 3 tcp 1000 ------- 2 1.0 5.0 6 41
r 10.75008 2 3 tcp 1000 ------- 2 1.0 5.0 6 41
+ 10.75008 3 5 tcp 1000 ------- 2 1.0 5.0 6 41
- 10.75008 3 5 tcp 1000 ------- 2 1.0 5.0 6 41
r 11.000106 0 2 tcp 1000 ------- 1 0.0 4.0 14 42
+ 11.000106 2 3 tcp 1000 ------- 1 0.0 4.0 14 42
- 11.000106 2 3 tcp 1000 ------- 1 0.0 4.0 14 42
r 11.000122 0 2 tcp 1000 ------- 1 0.0 4.0 15 43
+ 11.000122 2 3 tcp 1000 ------- 1 0.0 4.0 15 43
- 11.000122 2 3 tcp 1000 ------- 1 0.0 4.0 15 43
r 11.000138 0 2 tcp 1000 ------- 1 0.0 4.0 16 44
+ 11.000138 2 3 tcp 1000 ------- 1 0.0 4.0 16 44
- 11.000138 2 3 tcp 1000 ------- 1 0.0 4.0 16 44
r 11.000154 0 2 tcp 1000 ------- 1 0.0 4.0 17 45
+ 11.000154 2 3 tcp 1000 ------- 1 0.0 4.0 17 45
- 11.000154 2 3 tcp 1000 ------- 1 0.0 4.0 17 45
r 11.00017 0 2 tcp 1000 ------- 1 0.0 4.0 18 46
+ 11.00017 2 3 tcp 1000 ------- 1 0.0 4.0 18 46
- 11.00017 2 3 tcp 1000 ------- 1 0.0 4.0 18 46
r 11.000186 0 2 tcp 1000 ------- 1 0.0 4.0 19 47
+ 11.000186 2 3 tcp 1000 ------- 1 0.0 4.0 19 47
- 11.000186 2 3 tcp 1000 ------- 1 0.0 4.0 19 47
r 11.050122 2 3 tcp 1000 ------- 1 0.0 4.0 14 42
+ 11.050122 3 4 tcp 1000 ------- 1 0.0 4.0 14 42
- 11.050122 3 4 tcp 1000 ------- 1 0.0 4.0 14 42
r 11.050138 2 3 tcp 1000 ------- 1 0.0 4.0 15 43
+ 11.050138 3 4 tcp 1000 ------- 1 0.0 4.0 15 43
- 11.050138 3 4 tcp 1000 ------- 1 0.0 4.0 15 43
r 11.050154 2 3 tcp 1000 ------- 1 0.0 4.0 16 44
+ 11.050154 3 4 tcp 1000 ------- 1 0.0 4.0 16 44
- 11.050154 3 4 tcp 1000 ------- 1 0.0 4.0 16 44
r 11.05017 2 3 tcp 1000 ------- 1 0.0 4.0 17 45
+ 11.05017 3 4 tcp 1000 ------- 1 0.0 4.0 17 45
- 11.05017 3 4 tcp 1000 ------- 1 0.0 4.0 17 45
r 11.050186 2 3 tcp 1000 ------- 1 0.0 4.0 18 46
+ 11.050186 3 4 tcp 1000 ------- 1 0.0 4.0 18 46
- 11.050186 3 4 tcp 1000 ------- 1 0.0 4.0 18 46
r 11.050202 2 3 tcp 1000 ------- 1 0.0 4.0 19 47
+ 11.050202 3 4 tcp 1000 ------- 1 0.0 4.0 19 47
- 11.050202 3 4 tcp 1000 ------- 1 0.0 4.0 19 47
r 11.250078 3 5 tcp 1000 ------- 2 1.0 5.0 5 40
+ 11.250078 5 3 ack 40 ------- 2 5.0 1.0 5 48
- 11.250078 5 3 ack 40 ------- 2 5.0 1.0 5 48
r 11.550082 3 5 tcp 1000 ------- 2 1.0 5.0 6 41
+ 11.550082 5 3 ack 40 ------- 2 5.0 1.0 6 49
- 11.550082 5 3 ack 40 ------- 2 5.0 1.0 6 49
r 11.550124 3 4 tcp 1000 ------- 1 0.0 4.0 14 42
+ 11.550124 4 3 ack 40 ------- 1 4.0 0.0 14 50
- 11.550124 4 3 ack 40 ------- 1 4.0 0.0 14 50
r 11.55014 3 4 tcp 1000 ------- 1 0.0 4.0 15 43
+ 11.55014 4 3 ack 40 ------- 1 4.0 0.0 15 51
- 11.55014 4 3 ack 40 ------- 1 4.0 0.0 15 51
r 11.550156 3 4 tcp 1000 ------- 1 0.0 4.0 16 44
+ 11.550156 4 3 ack 40 ------- 1 4.0 0.0 16 52
- 11.550156 4 3 ack 40 ------- 1 4.0 0.0 16 52
r 11.550172 3 4 tcp 1000 ------- 1 0.0 4.0 17 45
+ 11.550172 4 3 ack 40 ------- 1 4.0 0.0 17 53
- 11.550172 4 3 ack 40 ------- 1 4.0 0.0 17 53
r 11.550188 3 4 tcp 1000 ------- 1 0.0 4.0 18 46
+ 11.550188 4 3 ack 40 ------- 1 4.0 0.0 18 54
- 11.550188 4 3 ack 40 ------- 1 4.0 0.0 18 54
r 11.550204 3 4 tcp 1000 ------- 1 0.0 4.0 19 47
+ 11.550204 4 3 ack 40 ------- 1 4.0 0.0 19 55
- 11.550204 4 3 ack 40 ------- 1 4.0 0.0 19 55
r 12.050078 5 3 ack 40 ------- 2 5.0 1.0 5 48
+ 12.050078 3 2 ack 40 ------- 2 5.0 1.0 5 48
- 12.050078 3 2 ack 40 ------- 2 5.0 1.0 5 48
r 12.050124 4 3 ack 40 ------- 1 4.0 0.0 14 50
+ 12.050124 3 2 ack 40 ------- 1 4.0 0.0 14 50
- 12.050124 3 2 ack 40 ------- 1 4.0 0.0 14 50
r 12.05014 4 3 ack 40 ------- 1 4.0 0.0 15 51
+ 12.05014 3 2 ack 40 ------- 1 4.0 0.0 15 51
- 12.05014 3 2 ack 40 ------- 1 4.0 0.0 15 51
r 12.050156 4 3 ack 40 ------- 1 4.0 0.0 16 52
+ 12.050156 3 2 ack 40 ------- 1 4.0 0.0 16 52
- 12.050156 3 2 ack 40 ------- 1 4.0 0.0 16 52
r 12.050172 4 3 ack 40 ------- 1 4.0 0.0 17 53
+ 12.050172 3 2 ack 40 ------- 1 4.0 0.0 17 53
- 12.050172 3 2 ack 40 ------- 1 4.0 0.0 17 53
r 12.050188 4 3 ack 40 ------- 1 4.0 0.0 18 54
+ 12.050188 3 2 ack 40 ------- 1 4.0 0.0 18 54
- 12.050188 3 2 ack 40 ------- 1 4.0 0.0 18 54
r 12.050204 4 3 ack 40 ------- 1 4.0 0.0 19 55
+ 12.050204 3 2 ack 40 ------- 1 4.0 0.0 19 55
- 12.050204 3 2 ack 40 ------- 1 4.0 0.0 19 55
r 12.100078 3 2 ack 40 ------- 2 5.0 1.0 5 48
+ 12.100078 2 1 ack 40 ------- 2 5.0 1.0 5 48
- 12.100078 2 1 ack 40 ------- 2 5.0 1.0 5 48
r 12.100125 3 2 ack 40 ------- 1 4.0 0.0 14 50
+ 12.100125 2 0 ack 40 ------- 1 4.0 0.0 14 50
- 12.100125 2 0 ack 40 ------- 1 4.0 0.0 14 50
r 12.100141 3 2 ack 40 ------- 1 4.0 0.0 15 51
+ 12.100141 2 0 ack 40 ------- 1 4.0 0.0 15 51
- 12.100141 2 0 ack 40 ------- 1 4.0 0.0 15 51
r 12.100157 3 2 ack 40 ------- 1 4.0 0.0 16 52
+ 12.100157 2 0 ack 40 ------- 1 4.0 0.0 16 52
- 12.100157 2 0 ack 40 ------- 1 4.0 0.0 16 52
r 12.100173 3 2 ack 40 ------- 1 4.0 0.0 17 53
+ 12.100173 2 0 ack 40 ------- 1 4.0 0.0 17 53
- 12.100173 2 0 ack 40 ------- 1 4.0 0.0 17 53
r 12.100189 3 2 ack 40 ------- 1 4.0 0.0 18 54
+ 12.100189 2 0 ack 40 ------- 1 4.0 0.0 18 54
- 12.100189 2 0 ack 40 ------- 1 4.0 0.0 18 54
r 12.100205 3 2 ack 40 ------- 1 4.0 0.0 19 55
+ 12.100205 2 0 ack 40 ------- 1 4.0 0.0 19 55
- 12.100205 2 0 ack 40 ------- 1 4.0 0.0 19 55
r 12.350082 5 3 ack 40 ------- 2 5.0 1.0 6 49
+ 12.350082 3 2 ack 40 ------- 2 5.0 1.0 6 49
- 12.350082 3 2 ack 40 ------- 2 5.0 1.0 6 49
r 12.400083 3 2 ack 40 ------- 2 5.0 1.0 6 49
+ 12.400083 2 1 ack 40 ------- 2 5.0 1.0 6 49
- 12.400083 2 1 ack 40 ------- 2 5.0 1.0 6 49
r 12.600125 2 0 ack 40 ------- 1 4.0 0.0 14 50
12.60012 0  0  4  0  ack_ 14
12.60012 0  0  4  0  cwnd_ 7.000 
+ 12.600125 0 2 tcp 1000 ------- 1 0.0 4.0 20 56
- 12.600125 0 2 tcp 1000 ------- 1 0.0 4.0 20 56
12.60012 0  0  4  0  maxseq_ 20
+ 12.600125 0 2 tcp 1000 ------- 1 0.0 4.0 21 57
12.60012 0  0  4  0  maxseq_ 21
- 12.600127 0 2 tcp 1000 ------- 1 0.0 4.0 21 57
r 12.600141 2 0 ack 40 ------- 1 4.0 0.0 15 51
12.60014 0  0  4  0  ack_ 15
12.60014 0  0  4  0  cwnd_ 8.000 
+ 12.600141 0 2 tcp 1000 ------- 1 0.0 4.0 22 58
- 12.600141 0 2 tcp 1000 ------- 1 0.0 4.0 22 58
12.60014 0  0  4  0  maxseq_ 22
+ 12.600141 0 2 tcp 1000 ------- 1 0.0 4.0 23 59
12.60014 0  0  4  0  maxseq_ 23
- 12.600143 0 2 tcp 1000 ------- 1 0.0 4.0 23 59
r 12.600157 2 0 ack 40 ------- 1 4.0 0.0 16 52
12.60016 0  0  4  0  ack_ 16
12.60016 0  0  4  0  cwnd_ 9.000 
+ 12.600157 0 2 tcp 1000 ------- 1 0.0 4.0 24 60
- 12.600157 0 2 tcp 1000 ------- 1 0.0 4.0 24 60
12.60016 0  0  4  0  maxseq_ 24
+ 12.600157 0 2 tcp 1000 ------- 1 0.0 4.0 25 61
12.60016 0  0  4  0  maxseq_ 25
- 12.600159 0 2 tcp 1000 ------- 1 0.0 4.0 25 61
r 12.600173 2 0 ack 40 ------- 1 4.0 0.0 17 53
12.60017 0  0  4  0  ack_ 17
12.60017 0  0  4  0  cwnd_ 10.000
+ 12.600173 0 2 tcp 1000 ------- 1 0.0 4.0 26 62
- 12.600173 0 2 tcp 1000 ------- 1 0.0 4.0 26 62
12.60017 0  0  4  0  maxseq_ 26
+ 12.600173 0 2 tcp 1000 ------- 1 0.0 4.0 27 63
12.60017 0  0  4  0  maxseq_ 27
- 12.600175 0 2 tcp 1000 ------- 1 0.0 4.0 27 63
r 12.600189 2 0 ack 40 ------- 1 4.0 0.0 18 54
12.60019 0  0  4  0  ack_ 18
12.60019 0  0  4  0  cwnd_ 11.000
+ 12.600189 0 2 tcp 1000 ------- 1 0.0 4.0 28 64
- 12.600189 0 2 tcp 1000 ------- 1 0.0 4.0 28 64
12.60019 0  0  4  0  maxseq_ 28
+ 12.600189 0 2 tcp 1000 ------- 1 0.0 4.0 29 65
12.60019 0  0  4  0  maxseq_ 29
- 12.600191 0 2 tcp 1000 ------- 1 0.0 4.0 29 65
r 12.600205 2 0 ack 40 ------- 1 4.0 0.0 19 55
12.60020 0  0  4  0  ack_ 19
12.60020 0  0  4  0  cwnd_ 12.000
+ 12.600205 0 2 tcp 1000 ------- 1 0.0 4.0 30 66
- 12.600205 0 2 tcp 1000 ------- 1 0.0 4.0 30 66
12.60020 0  0  4  0  maxseq_ 30
+ 12.600205 0 2 tcp 1000 ------- 1 0.0 4.0 31 67
12.60020 0  0  4  0  maxseq_ 31
- 12.600207 0 2 tcp 1000 ------- 1 0.0 4.0 31 67
r 12.900078 2 1 ack 40 ------- 2 5.0 1.0 5 48
12.90008 1  0  5  0  ack_ 5
+ 12.900078 1 2 tcp 1000 ------- 2 1.0 5.0 7 68
- 12.900078 1 2 tcp 1000 ------- 2 1.0 5.0 7 68
12.90008 1  0  5  0  maxseq_ 7
r 13.100127 0 2 tcp 1000 ------- 1 0.0 4.0 20 56
+ 13.100127 2 3 tcp 1000 ------- 1 0.0 4.0 20 56
- 13.100127 2 3 tcp 1000 ------- 1 0.0 4.0 20 56
r 13.100129 0 2 tcp 1000 ------- 1 0.0 4.0 21 57
+ 13.100129 2 3 tcp 1000 ------- 1 0.0 4.0 21 57
r 13.100143 0 2 tcp 1000 ------- 1 0.0 4.0 22 58
+ 13.100143 2 3 tcp 1000 ------- 1 0.0 4.0 22 58
- 13.100143 2 3 tcp 1000 ------- 1 0.0 4.0 21 57
r 13.100145 0 2 tcp 1000 ------- 1 0.0 4.0 23 59
+ 13.100145 2 3 tcp 1000 ------- 1 0.0 4.0 23 59
r 13.100159 0 2 tcp 1000 ------- 1 0.0 4.0 24 60
+ 13.100159 2 3 tcp 1000 ------- 1 0.0 4.0 24 60
- 13.100159 2 3 tcp 1000 ------- 1 0.0 4.0 22 58
r 13.100161 0 2 tcp 1000 ------- 1 0.0 4.0 25 61
+ 13.100161 2 3 tcp 1000 ------- 1 0.0 4.0 25 61
r 13.100175 0 2 tcp 1000 ------- 1 0.0 4.0 26 62
+ 13.100175 2 3 tcp 1000 ------- 1 0.0 4.0 26 62
- 13.100175 2 3 tcp 1000 ------- 1 0.0 4.0 23 59
r 13.100177 0 2 tcp 1000 ------- 1 0.0 4.0 27 63
+ 13.100177 2 3 tcp 1000 ------- 1 0.0 4.0 27 63
r 13.100191 0 2 tcp 1000 ------- 1 0.0 4.0 28 64
+ 13.100191 2 3 tcp 1000 ------- 1 0.0 4.0 28 64
- 13.100191 2 3 tcp 1000 ------- 1 0.0 4.0 24 60
r 13.100193 0 2 tcp 1000 ------- 1 0.0 4.0 29 65
+ 13.100193 2 3 tcp 1000 ------- 1 0.0 4.0 29 65
r 13.100207 0 2 tcp 1000 ------- 1 0.0 4.0 30 66
+ 13.100207 2 3 tcp 1000 ------- 1 0.0 4.0 30 66
d 13.100207 2 3 tcp 1000 ------- 1 0.0 4.0 30 66
- 13.100207 2 3 tcp 1000 ------- 1 0.0 4.0 25 61
r 13.100209 0 2 tcp 1000 ------- 1 0.0 4.0 31 67
+ 13.100209 2 3 tcp 1000 ------- 1 0.0 4.0 31 67
- 13.100223 2 3 tcp 1000 ------- 1 0.0 4.0 26 62
- 13.100239 2 3 tcp 1000 ------- 1 0.0 4.0 27 63
- 13.100255 2 3 tcp 1000 ------- 1 0.0 4.0 28 64
- 13.100271 2 3 tcp 1000 ------- 1 0.0 4.0 29 65
- 13.100287 2 3 tcp 1000 ------- 1 0.0 4.0 31 67
r 13.150143 2 3 tcp 1000 ------- 1 0.0 4.0 20 56
+ 13.150143 3 4 tcp 1000 ------- 1 0.0 4.0 20 56
- 13.150143 3 4 tcp 1000 ------- 1 0.0 4.0 20 56
r 13.150159 2 3 tcp 1000 ------- 1 0.0 4.0 21 57
+ 13.150159 3 4 tcp 1000 ------- 1 0.0 4.0 21 57
- 13.150159 3 4 tcp 1000 ------- 1 0.0 4.0 21 57
r 13.150175 2 3 tcp 1000 ------- 1 0.0 4.0 22 58
+ 13.150175 3 4 tcp 1000 ------- 1 0.0 4.0 22 58
- 13.150175 3 4 tcp 1000 ------- 1 0.0 4.0 22 58
r 13.150191 2 3 tcp 1000 ------- 1 0.0 4.0 23 59
+ 13.150191 3 4 tcp 1000 ------- 1 0.0 4.0 23 59
- 13.150191 3 4 tcp 1000 ------- 1 0.0 4.0 23 59
r 13.150207 2 3 tcp 1000 ------- 1 0.0 4.0 24 60