0.00000  0  0  4  0  cwnd_ 1.000 
0.00000  0  0  4  0  ssthresh_ 20
0.00000  0  0  4  0  ack_ -1
0.00000  0  0  4  0  maxseq_ -1
0.00000  0  0  4  0  rtt_ 0.000 
0.00000  1  0  5  0  cwnd_ 1.000 
0.00000  1  0  5  0  ssthresh_ 20
0.00000  1  0  5  0  ack_ -1
0.00000  1  0  5  0  maxseq_ -1
0.00000  1  0  5  0  rtt_ 0.000 
0.00000  0  0  4  0  ssthresh_ 1000
0.00000  1  0  5  0  ssthresh_ 1000
+ 0 1 2 tcp 40 ------- 2 1.0 5.0 0 0
- 0 1 2 tcp 40 ------- 2 1.0 5.0 0 0
0.00000  1  0  5  0  maxseq_ 0
+ 0 0 2 tcp 40 ------- 1 0.0 4.0 0 1
- 0 0 2 tcp 40 ------- 1 0.0 4.0 0 1
0.00000  0  0  4  0  maxseq_ 0
r 0.5 0 2 tcp 40 ------- 1 0.0 4.0 0 1
+ 0.5 2 3 tcp 40 ------- 1 0.0 4.0 0 1
- 0.5 2 3 tcp 40 ------- 1 0.0 4.0 0 1
r 0.55 2 3 tcp 40 ------- 1 0.0 4.0 0 1
+ 0.55 3 4 tcp 40 ------- 1 0.0 4.0 0 1
- 0.55 3 4 tcp 40 ------- 1 0.0 4.0 0 1
r 0.8 1 2 tcp 40 ------- 2 1.0 5.0 0 0
+ 0.8 2 3 tcp 40 ------- 2 1.0 5.0 0 0
- 0.8 2 3 tcp 40 ------- 2 1.0 5.0 0 0
r 0.85 2 3 tcp 40 ------- 2 1.0 5.0 0 0
+ 0.85 3 5 tcp 40 ------- 2 1.0 5.0 0 0
- 0.85 3 5 tcp 40 ------- 2 1.0 5.0 0 0
r 1.05 3 4 tcp 40 ------- 1 0.0 4.0 0 1
+ 1.05 4 3 ack 40 ------- 1 4.0 0.0 0 2
- 1.05 4 3 ack 40 ------- 1 4.0 0.0 0 2
r 1.550001 4 3 ack 40 ------- 1 4.0 0.0 0 2
+ 1.550001 3 2 ack 40 ------- 1 4.0 0.0 0 2
- 1.550001 3 2 ack 40 ------- 1 4.0 0.0 0 2
r 1.600001 3 2 ack 40 ------- 1 4.0 0.0 0 2
+ 1.600001 2 0 ack 40 ------- 1 4.0 0.0 0 2
- 1.600001 2 0 ack 40 ------- 1 4.0 0.0 0 2
r 1.65 3 5 tcp 40 ------- 2 1.0 5.0 0 0
+ 1.65 5 3 ack 40 ------- 2 5.0 1.0 0 3
- 1.65 5 3 ack 40 ------- 2 5.0 1.0 0 3
r 2.100001 2 0 ack 40 ------- 1 4.0 0.0 0 2
2.10000  0  0  4  0  ack_ 0
2.10000  0  0  4  0  rtt_ 2.100 
2.10000  0  0  4  0  cwnd_ 2.000 
+ 2.100001 0 2 tcp 1040 ------- 1 0.0 4.0 1 4
- 2.100001 0 2 tcp 1040 ------- 1 0.0 4.0 1 4
2.10000  0  0  4  0  maxseq_ 1
+ 2.100001 0 2 tcp 1040 ------- 1 0.0 4.0 2 5
2.10000  0  0  4  0  maxseq_ 2
- 2.100003 0 2 tcp 1040 ------- 1 0.0 4.0 2 5
r 2.450001 5 3 ack 40 ------- 2 5.0 1.0 0 3
+ 2.450001 3 2 ack 40 ------- 2 5.0 1.0 0 3
- 2.450001 3 2 ack 40 ------- 2 5.0 1.0 0 3
r 2.500001 3 2 ack 40 ------- 2 5.0 1.0 0 3
+ 2.500001 2 1 ack 40 ------- 2 5.0 1.0 0 3
- 2.500001 2 1 ack 40 ------- 2 5.0 1.0 0 3
r 2.600003 0 2 tcp 1040 ------- 1 0.0 4.0 1 4
+ 2.600003 2 3 tcp 1040 ------- 1 0.0 4.0 1 4
- 2.600003 2 3 tcp 1040 ------- 1 0.0 4.0 1 4
r 2.600005 0 2 tcp 1040 ------- 1 0.0 4.0 2 5
+ 2.600005 2 3 tcp 1040 ------- 1 0.0 4.0 2 5
- 2.600011 2 3 tcp 1040 ------- 1 0.0 4.0 2 5
r 2.650011 2 3 tcp 1040 ------- 1 0.0 4.0 1 4
+ 2.650011 3 4 tcp 1040 ------- 1 0.0 4.0 1 4
- 2.650011 3 4 tcp 1040 ------- 1 0.0 4.0 1 4
r 2.65002 2 3 tcp 1040 ------- 1 0.0 4.0 2 5
+ 2.65002 3 4 tcp 1040 ------- 1 0.0 4.0 2 5
- 2.65002 3 4 tcp 1040 ------- 1 0.0 4.0 2 5
3.00000  1  0  5  0  ssthresh_ 0
3.00000  1  0  5  0  ssthresh_ 2
+ 3 1 2 tcp 40 ---A--- 2 1.0 5.0 0 6
- 3 1 2 tcp 40 ---A--- 2 1.0 5.0 0 6
r 3.150013 3 4 tcp 1040 ------- 1 0.0 4.0 1 4
+ 3.150013 4 3 ack 40 ------- 1 4.0 0.0 1 7
- 3.150013 4 3 ack 40 ------- 1 4.0 0.0 1 7
r 3.150022 3 4 tcp 1040 ------- 1 0.0 4.0 2 5
+ 3.150022 4 3 ack 40 ------- 1 4.0 0.0 2 8
- 3.150022 4 3 ack 40 ------- 1 4.0 0.0 2 8
r 3.300001 2 1 ack 40 ------- 2 5.0 1.0 0 3
3.30000  1  0  5  0  ack_ 0
3.30000  1  0  5  0  cwnd_ 2.000 
3.30000  1  0  5  0  cwnd_ 1.000 
+ 3.300001 1 2 tcp 1040 ------- 2 1.0 5.0 1 9
- 3.300001 1 2 tcp 1040 ------- 2 1.0 5.0 1 9
3.30000  1  0  5  0  maxseq_ 1
r 3.650014 4 3 ack 40 ------- 1 4.0 0.0 1 7
+ 3.650014 3 2 ack 40 ------- 1 4.0 0.0 1 7
- 3.650014 3 2 ack 40 ------- 1 4.0 0.0 1 7
r 3.650022 4 3 ack 40 ------- 1 4.0 0.0 2 8
+ 3.650022 3 2 ack 40 ------- 1 4.0 0.0 2 8
- 3.650022 3 2 ack 40 ------- 1 4.0 0.0 2 8
r 3.700014 3 2 ack 40 ------- 1 4.0 0.0 1 7
+ 3.700014 2 0 ack 40 ------- 1 4.0 0.0 1 7
- 3.700014 2 0 ack 40 ------- 1 4.0 0.0 1 7
r 3.700022 3 2 ack 40 ------- 1 4.0 0.0 2 8
+ 3.700022 2 0 ack 40 ------- 1 4.0 0.0 2 8
- 3.700022 2 0 ack 40 ------- 1 4.0 0.0 2 8
r 3.8 1 2 tcp 40 ---A--- 2 1.0 5.0 0 6
+ 3.8 2 3 tcp 40 ---A--- 2 1.0 5.0 0 6
- 3.8 2 3 tcp 40 ---A--- 2 1.0 5.0 0 6
r 3.85 2 3 tcp 40 ---A--- 2 1.0 5.0 0 6
+ 3.85 3 5 tcp 40 ---A--- 2 1.0 5.0 0 6
- 3.85 3 5 tcp 40 ---A--- 2 1.0 5.0 0 6
r 4.100003 1 2 tcp 1040 ------- 2 1.0 5.0 1 9
+ 4.100003 2 3 tcp 1040 ------- 2 1.0 5.0 1 9
- 4.100003 2 3 tcp 1040 ------- 2 1.0 5.0 1 9
r 4.150011 2 3 tcp 1040 ------- 2 1.0 5.0 1 9
+ 4.150011 3 5 tcp 1040 ------- 2 1.0 5.0 1 9
- 4.150011 3 5 tcp 1040 ------- 2 1.0 5.0 1 9
r 4.200014 2 0 ack 40 ------- 1 4.0 0.0 1 7
4.20001  0  0  4  0  ack_ 1
4.20001  0  0  4  0  cwnd_ 3.000 
+ 4.200014 0 2 tcp 1040 ------- 1 0.0 4.0 3 10
- 4.200014 0 2 tcp 1040 ------- 1 0.0 4.0 3 10
4.20001  0  0  4  0  maxseq_ 3
+ 4.200014 0 2 tcp 1040 ------- 1 0.0 4.0 4 11
4.20001  0  0  4  0  maxseq_ 4
- 4.200016 0 2 tcp 1040 ------- 1 0.0 4.0 4 11
r 4.200022 2 0 ack 40 ------- 1 4.0 0.0 2 8
4.20002  0  0  4  0  ack_ 2
4.20002  0  0  4  0  cwnd_ 4.000 
+ 4.200022 0 2 tcp 1040 ------- 1 0.0 4.0 5 12
- 4.200022 0 2 tcp 1040 ------- 1 0.0 4.0 5 12
4.20002  0  0  4  0  maxseq_ 5
+ 4.200022 0 2 tcp 1040 ------- 1 0.0 4.0 6 13
4.20002  0  0  4  0  maxseq_ 6
- 4.200024 0 2 tcp 1040 ------- 1 0.0 4.0 6 13
r 4.65 3 5 tcp 40 ---A--- 2 1.0 5.0 0 6
+ 4.65 5 3 ack 40 ------- 2 5.0 1.0 0 14
- 4.65 5 3 ack 40 ------- 2 5.0 1.0 0 14
r 4.700016 0 2 tcp 1040 ------- 1 0.0 4.0 3 10
+ 4.700016 2 3 tcp 1040 ------- 1 0.0 4.0 3 10
- 4.700016 2 3 tcp 1040 ------- 1 0.0 4.0 3 10
r 4.700018 0 2 tcp 1040 ------- 1 0.0 4.0 4 11
+ 4.700018 2 3 tcp 1040 ------- 1 0.0 4.0 4 11
r 4.700024 0 2 tcp 1040 ------- 1 0.0 4.0 5 12
+ 4.700024 2 3 tcp 1040 ------- 1 0.0 4.0 5 12
- 4.700024 2 3 tcp 1040 ------- 1 0.0 4.0 4 11
r 4.700026 0 2 tcp 1040 ------- 1 0.0 4.0 6 13
+ 4.700026 2 3 tcp 1040 ------- 1 0.0 4.0 6 13
- 4.700033 2 3 tcp 1040 ------- 1 0.0 4.0 5 12
- 4.700041 2 3 tcp 1040 ------- 1 0.0 4.0 6 13
r 4.750024 2 3 tcp 1040 ------- 1 0.0 4.0 3 10
+ 4.750024 3 4 tcp 1040 ------- 1 0.0 4.0 3 10
- 4.750024 3 4 tcp 1040 ------- 1 0.0 4.0 3 10
r 4.750033 2 3 tcp 1040 ------- 1 0.0 4.0 4 11
+ 4.750033 3 4 tcp 1040 ------- 1 0.0 4.0 4 11
- 4.750033 3 4 tcp 1040 ------- 1 0.0 4.0 4 11
r 4.750041 2 3 tcp 1040 ------- 1 0.0 4.0 5 12
+ 4.750041 3 4 tcp 1040 ------- 1 0.0 4.0 5 12
- 4.750041 3 4 tcp 1040 ------- 1 0.0 4.0 5 12
r 4.750049 2 3 tcp 1040 ------- 1 0.0 4.0 6 13
+ 4.750049 3 4 tcp 1040 ------- 1 0.0 4.0 6 13
- 4.750049 3 4 tcp 1040 ------- 1 0.0 4.0 6 13
r 4.950013 3 5 tcp 1040 ------- 2 1.0 5.0 1 9
+ 4.950013 5 3 ack 40 ------- 2 5.0 1.0 1 15
- 4.950013 5 3 ack 40 ------- 2 5.0 1.0 1 15
r 5.250026 3 4 tcp 1040 ------- 1 0.0 4.0 3 10
+ 5.250026 4 3 ack 40 ------- 1 4.0 0.0 3 16
- 5.250026 4 3 ack 40 ------- 1 4.0 0.0 3 16
r 5.250035 3 4 tcp 1040 ------- 1 0.0 4.0 4 11
+ 5.250035 4 3 ack 40 ------- 1 4.0 0.0 4 17
- 5.250035 4 3 ack 40 ------- 1 4.0 0.0 4 17
r 5.250043 3 4 tcp 1040 ------- 1 0.0 4.0 5 12
+ 5.250043 4 3 ack 40 ------- 1 4.0 0.0 5 18
- 5.250043 4 3 ack 40 ------- 1 4.0 0.0 5 18
r 5.250051 3 4 tcp 1040 ------- 1 0.0 4.0 6 13
+ 5.250051 4 3 ack 40 ------- 1 4.0 0.0 6 19
- 5.250051 4 3 ack 40 ------- 1 4.0 0.0 6 19
r 5.450001 5 3 ack 40 ------- 2 5.0 1.0 0 14
+ 5.450001 3 2 ack 40 ------- 2 5.0 1.0 0 14
- 5.450001 3 2 ack 40 ------- 2 5.0 1.0 0 14
r 5.500001 3 2 ack 40 ------- 2 5.0 1.0 0 14
+ 5.500001 2 1 ack 40 ------- 2 5.0 1.0 0 14
- 5.500001 2 1 ack 40 ------- 2 5.0 1.0 0 14
r 5.750014 5 3 ack 40 ------- 2 5.0 1.0 1 15
+ 5.750014 3 2 ack 40 ------- 2 5.0 1.0 1 15
- 5.750014 3 2 ack 40 ------- 2 5.0 1.0 1 15
r 5.750026 4 3 ack 40 ------- 1 4.0 0.0 3 16
+ 5.750026 3 2 ack 40 ------- 1 4.0 0.0 3 16
- 5.750026 3 2 ack 40 ------- 1 4.0 0.0 3 16
r 5.750035 4 3 ack 40 ------- 1 4.0 0.0 4 17
+ 5.750035 3 2 ack 40 ------- 1 4.0 0.0 4 17
- 5.750035 3 2 ack 40 ------- 1 4.0 0.0 4 17
r 5.750043 4 3 ack 40 ------- 1 4.0 0.0 5 18
+ 5.750043 3 2 ack 40 ------- 1 4.0 0.0 5 18
- 5.750043 3 2 ack 40 ------- 1 4.0 0.0 5 18
r 5.750051 4 3 ack 40 ------- 1 4.0 0.0 6 19
+ 5.750051 3 2 ack 40 ------- 1 4.0 0.0 6 19
- 5.750051 3 2 ack 40 ------- 1 4.0 0.0 6 19
r 5.800014 3 2 ack 40 ------- 2 5.0 1.0 1 15
+ 5.800014 2 1 ack 40 ------- 2 5.0 1.0 1 15
- 5.800014 2 1 ack 40 ------- 2 5.0 1.0 1 15
r 5.800027 3 2 ack 40 ------- 1 4.0 0.0 3 16
+ 5.800027 2 0 ack 40 ------- 1 4.0 0.0 3 16
- 5.800027 2 0 ack 40 ------- 1 4.0 0.0 3 16
r 5.800035 3 2 ack 40 ------- 1 4.0 0.0 4 17
+ 5.800035 2 0 ack 40 ------- 1 4.0 0.0 4 17
- 5.800035 2 0 ack 40 ------- 1 4.0 0.0 4 17
r 5.800043 3 2 ack 40 ------- 1 4.0 0.0 5 18
+ 5.800043 2 0 ack 40 ------- 1 4.0 0.0 5 18
- 5.800043 2 0 ack 40 ------- 1 4.0 0.0 5 18
r 5.800052 3 2 ack 40 ------- 1 4.0 0.0 6 19
+ 5.800052 2 0 ack 40 ------- 1 4.0 0.0 6 19
- 5.800052 2 0 ack 40 ------- 1 4.0 0.0 6 19
r 6.300001 2 1 ack 40 ------- 2 5.0 1.0 0 14
+ 6.300001 1 2 tcp 1040 ------- 2 1.0 5.0 2 20
- 6.300001 1 2 tcp 1040 ------- 2 1.0 5.0 2 20
6.30000  1  0  5  0  maxseq_ 2
r 6.300027 2 0 ack 40 ------- 1 4.0 0.0 3 16
6.30003  0  0  4  0  ack_ 3
6.30003  0  0  4  0  cwnd_ 5.000 
+ 6.300027 0 2 tcp 1040 ------- 1 0.0 4.0 7 21
- 6.300027 0 2 tcp 1040 ------- 1 0.0 4.0 7 21
6.30003  0  0  4  0  maxseq_ 7
+ 6.300027 0 2 tcp 1040 ------- 1 0.0 4.0 8 22
6.30003  0  0  4  0  maxseq_ 8
- 6.300029 0 2 tcp 1040 ------- 1 0.0 4.0 8 22
r 6.300035 2 0 ack 40 ------- 1 4.0 0.0 4 17
6.30004  0  0  4  0  ack_ 4
6.30004  0  0  4  0  cwnd_ 6.000 
+ 6.300035 0 2 tcp 1040 ------- 1 0.0 4.0 9 23
- 6.300035 0 2 tcp 1040 ------- 1 0.0 4.0 9 23
6.30004  0  0  4  0  maxseq_ 9
+ 6.300035 0 2 tcp 1040 ------- 1 0.0 4.0 10 24
6.30004  0  0  4  0  maxseq_ 10
- 6.300037 0 2 tcp 1040 ------- 1 0.0 4.0 10 24
r 6.300044 2 0 ack 40 ------- 1 4.0 0.0 5 18
6.30004  0  0  4  0  ack_ 5
6.30004  0  0  4  0  cwnd_ 7.000 
+ 6.300044 0 2 tcp 1040 ------- 1 0.0 4.0 11 25
- 6.300044 0 2 tcp 1040 ------- 1 0.0 4.0 11 25
6.30004  0  0  4  0  maxseq_ 11
+ 6.300044 0 2 tcp 1040 ------- 1 0.0 4.0 12 26
6.30004  0  0  4  0  maxseq_ 12
- 6.300046 0 2 tcp 1040 ------- 1 0.0 4.0 12 26
r 6.300052 2 0 ack 40 ------- 1 4.0 0.0 6 19
6.30005  0  0  4  0  ack_ 6
6.30005  0  0  4  0  cwnd_ 8.000 
+ 6.300052 0 2 tcp 1040 ------- 1 0.0 4.0 13 27
- 6.300052 0 2 tcp 1040 ------- 1 0.0 4.0 13 27
6.30005  0  0  4  0  maxseq_ 13
+ 6.300052 0 2 tcp 1040 ------- 1 0.0 4.0 14 28
6.30005  0  0  4  0  maxseq_ 14
- 6.300054 0 2 tcp 1040 ------- 1 0.0 4.0 14 28
r 6.600014 2 1 ack 40 ------- 2 5.0 1.0 1 15
6.60001  1  0  5  0  ack_ 1
6.60001  1  0  5  0  rtt_ 3.300 
6.60001  1  0  5  0  cwnd_ 2.000 
+ 6.600014 1 2 tcp 1040 ------- 2 1.0 5.0 3 29
- 6.600014 1 2 tcp 1040 ------- 2 1.0 5.0 3 29
6.60001  1  0  5  0  maxseq_ 3
r 6.800029 0 2 tcp 1040 ------- 1 0.0 4.0 7 21
+ 6.800029 2 3 tcp 1040 ------- 1 0.0 4.0 7 21
- 6.800029 2 3 tcp 1040 ------- 1 0.0 4.0 7 21
r 6.800031 0 2 tcp 1040 ------- 1 0.0 4.0 8 22
+ 6.800031 2 3 tcp 1040 ------- 1 0.0 4.0 8 22
- 6.800037 2 3 tcp 1040 ------- 1 0.0 4.0 8 22
r 6.800037 0 2 tcp 1040 ------- 1 0.0 4.0 9 23
+ 6.800037 2 3 tcp 1040 ------- 1 0.0 4.0 9 23
r 6.800039 0 2 tcp 1040 ------- 1 0.0 4.0 10 24
+ 6.800039 2 3 tcp 1040 ------- 1 0.0 4.0 10 24
r 6.800046 0 2 tcp 1040 ------- 1 0.0 4.0 11 25
+ 6.800046 2 3 tcp 1040 ------- 1 0.0 4.0 11 25
- 6.800046 2 3 tcp 1040 ------- 1 0.0 4.0 9 23
r 6.800048 0 2 tcp 1040 ------- 1 0.0 4.0 12 26
+ 6.800048 2 3 tcp 1040 ------- 1 0.0 4.0 12 26
- 6.800054 2 3 tcp 1040 ------- 1 0.0 4.0 10 24
r 6.800054 0 2 tcp 1040 ------- 1 0.0 4.0 13 27
+ 6.800054 2 3 tcp 1040 ------- 1 0.0 4.0 13 27
r 6.800056 0 2 tcp 1040 ------- 1 0.0 4.0 14 28
+ 6.800056 2 3 tcp 1040 ------- 1 0.0 4.0 14 28
- 6.800062 2 3 tcp 1040 ------- 1 0.0 4.0 11 25
- 6.800071 2 3 tcp 1040 ------- 1 0.0 4.0 12 26
- 6.800079 2 3 tcp 1040 ------- 1 0.0 4.0 13 27
- 6.800087 2 3 tcp 1040 ------- 1 0.0 4.0 14 28
r 6.850037 2 3 tcp 1040 ------- 1 0.0 4.0 7 21
+ 6.850037 3 4 tcp 1040 ------- 1 0.0 4.0 7 21
- 6.850037 3 4 tcp 1040 ------- 1 0.0 4.0 7 21
r 6.850046 2 3 tcp 1040 ------- 1 0.0 4.0 8 22
+ 6.850046 3 4 tcp 1040 ------- 1 0.0 4.0 8 22
- 6.850046 3 4 tcp 1040 ------- 1 0.0 4.0 8 22
r 6.850054 2 3 tcp 1040 ------- 1 0.0 4.0 9 23
+ 6.850054 3 4 tcp 1040 ------- 1 0.0 4.0 9 23
- 6.850054 3 4 tcp 1040 ------- 1 0.0 4.0 9 23
r 6.850062 2 3 tcp 1040 ------- 1 0.0 4.0 10 24
+ 6.850062 3 4 tcp 1040 ------- 1 0.0 4.0 10 24
- 6.850062 3 4 tcp 1040 ------- 1 0.0 4.0 10 24
r 6.850071 2 3 tcp 1040 ------- 1 0.0 4.0 11 25
+ 6.850071 3 4 tcp 1040 ------- 1 0.0 4.0 11 25
- 6.850071 3 4 tcp 1040 ------- 1 0.0 4.0 11 25
r 6.850079 2 3 tcp 1040 ------- 1 0.0 4.0 12 26
+ 6.850079 3 4 tcp 1040 ------- 1 0.0 4.0 12 26
- 6.850079 3 4 tcp 1040 ------- 1 0.0 4.0 12 26
r 6.850087 2 3 tcp 1040 ------- 1 0.0 4.0 13 27
+ 6.850087 3 4 tcp 1040 ------- 1 0.0 4.0 13 27
- 6.850087 3 4 tcp 1040 ------- 1 0.0 4.0 13 27
r 6.850096 2 3 tcp 1040 ------- 1 0.0 4.0 14 28
+ 6.850096 3 4 tcp 1040 ------- 1 0.0 4.0 14 28
- 6.850096 3 4 tcp 1040 ------- 1 0.0 4.0 14 28
r 7.100003 1 2 tcp 1040 ------- 2 1.0 5.0 2 20
+ 7.100003 2 3 tcp 1040 ------- 2 1.0 5.0 2 20
- 7.100003 2 3 tcp 1040 ------- 2 1.0 5.0 2 20
r 7.150011 2 3 tcp 1040 ------- 2 1.0 5.0 2 20
+ 7.150011 3 5 tcp 1040 ------- 2 1.0 5.0 2 20
- 7.150011 3 5 tcp 1040 ------- 2 1.0 5.0 2 20
r 7.350039 3 4 tcp 1040 ------- 1 0.0 4.0 7 21
+ 7.350039 4 3 ack 40 ------- 1 4.0 0.0 7 30
- 7.350039 4 3 ack 40 ------- 1 4.0 0.0 7 30
r 7.350048 3 4 tcp 1040 ------- 1 0.0 4.0 8 22
+ 7.350048 4 3 ack 40 ------- 1 4.0 0.0 8 31
- 7.350048 4 3 ack 40 ------- 1 4.0 0.0 8 31
r 7.350056 3 4 tcp 1040 ------- 1 0.0 4.0 9 23
+ 7.350056 4 3 ack 40 ------- 1 4.0 0.0 9 32
- 7.350056 4 3 ack 40 ------- 1 4.0 0.0 9 32
r 7.350064 3 4 tcp 1040 ------- 1 0.0 4.0 10 24
+ 7.350064 4 3 ack 40 ------- 1 4.0 0.0 10 33
- 7.350064 4 3 ack 40 ------- 1 4.0 0.0 10 33
r 7.350073 3 4 tcp 1040 ------- 1 0.0 4.0 11 25
+ 7.350073 4 3 ack 40 ------- 1 4.0 0.0 11 34
- 7.350073 4 3 ack 40 ------- 1 4.0 0.0 11 34
r 7.350081 3 4 tcp 1040 ------- 1 0.0 4.0 12 26
+ 7.350081 4 3 ack 40 ------- 1 4.0 0.0 12 35
- 7.350081 4 3 ack 40 ------- 1 4.0 0.0 12 35
r 7.350089 3 4 tcp 1040 ------- 1 0.0 4.0 13 27
+ 7.350089 4 3 ack 40 ------- 1 4.0 0.0 13 36
- 7.350089 4 3 ack 40 ------- 1 4.0 0.0 13 36
r 7.350098 3 4 tcp 1040 ------- 1 0.0 4.0 14 28
+ 7.350098 4 3 ack 40 ------- 1 4.0 0.0 14 37
- 7.350098 4 3 ack 40 ------- 1 4.0 0.0 14 37
r 7.400016 1 2 tcp 1040 ------- 2 1.0 5.0 3 29
+ 7.400016 2 3 tcp 1040 ------- 2 1.0 5.0 3 29
- 7.400016 2 3 tcp 1040 ------- 2 1.0 5.0 3 29
r 7.450024 2 3 tcp 1040 ------- 2 1.0 5.0 3 29
+ 7.450024 3 5 tcp 1040 ------- 2 1.0 5.0 3 29
- 7.450024 3 5 tcp 1040 ------- 2 1.0 5.0 3 29
r 7.850039 4 3 ack 40 ------- 1 4.0 0.0 7 30
+ 7.850039 3 2 ack 40 ------- 1 4.0 0.0 7 30
- 7.850039 3 2 ack 40 ------- 1 4.0 0.0 7 30
r 7.850048 4 3 ack 40 ------- 1 4.0 0.0 8 31
+ 7.850048 3 2 ack 40 ------- 1 4.0 0.0 8 31
- 7.850048 3 2 ack 40 ------- 1 4.0 0.0 8 31
r 7.850056 4 3 ack 40 ------- 1 4.0 0.0 9 32
+ 7.850056 3 2 ack 40 ------- 1 4.0 0.0 9 32
- 7.850056 3 2 ack 40 ------- 1 4.0 0.0 9 32
r 7.850064 4 3 ack 40 ------- 1 4.0 0.0 10 33
+ 7.850064 3 2 ack 40 ------- 1 4.0 0.0 10 33
- 7.850064 3 2 ack 40 ------- 1 4.0 0.0 10 33
r 7.850073 4 3 ack 40 ------- 1 4.0 0.0 11 34
+ 7.850073 3 2 ack 40 ------- 1 4.0 0.0 11 34
- 7.850073 3 2 ack 40 ------- 1 4.0 0.0 11 34
r 7.850081 4 3 ack 40 ------- 1 4.0 0.0 12 35
+ 7.850081 3 2 ack 40 ------- 1 4.0 0.0 12 35
- 7.850081 3 2 ack 40 ------- 1 4.0 0.0 12 35
r 7.850089 4 3 ack 40 ------- 1 4.0 0.0 13 36
+ 7.850089 3 2 ack 40 ------- 1 4.0 0.0 13 36
- 7.850089 3 2 ack 40 ------- 1 4.0 0.0 13 36
r 7.850098 4 3 ack 40 ------- 1 4.0 0.0 14 37
+ 7.850098 3 2 ack 40 ------- 1 4.0 0.0 14 37
- 7.850098 3 2 ack 40 ------- 1 4.0 0.0 14 37
r 7.90004 3 2 ack 40 ------- 1 4.0 0.0 7 30
+ 7.90004 2 0 ack 40 ------- 1 4.0 0.0 7 30
- 7.90004 2 0 ack 40 ------- 1 4.0 0.0 7 30
r 7.900048 3 2 ack 40 ------- 1 4.0 0.0 8 31
+ 7.900048 2 0 ack 40 ------- 1 4.0 0.0 8 31
- 7.900048 2 0 ack 40 ------- 1 4.0 0.0 8 31
r 7.900056 3 2 ack 40 ------- 1 4.0 0.0 9 32
+ 7.900056 2 0 ack 40 ------- 1 4.0 0.0 9 32
- 7.900056 2 0 ack 40 ------- 1 4.0 0.0 9 32
r 7.900065 3 2 ack 40 ------- 1 4.0 0.0 10 33
+ 7.900065 2 0 ack 40 ------- 1 4.0 0.0 10 33
- 7.900065 2 0 ack 40 ------- 1 4.0 0.0 10 33
r 7.900073 3 2 ack 40 ------- 1 4.0 0.0 11 34
+ 7.900073 2 0 ack 40 ------- 1 4.0 0.0 11 34
- 7.900073 2 0 ack 40 ------- 1 4.0 0.0 11 34
r 7.900081 3 2 ack 40 ------- 1 4.0 0.0 12 35
+ 7.900081 2 0 ack 40 ------- 1 4.0 0.0 12 35
- 7.900081 2 0 ack 40 ------- 1 4.0 0.0 12 35
r 7.90009 3 2 ack 40 ------- 1 4.0 0.0 13 36
+ 7.90009 2 0 ack 40 ------- 1 4.0 0.0 13 36
- 7.90009 2 0 ack 40 ------- 1 4.0 0.0 13 36
r 7.900098 3 2 ack 40 ------- 1 4.0 0.0 14 37
+ 7.900098 2 0 ack 40 ------- 1 4.0 0.0 14 37
- 7.900098 2 0 ack 40 ------- 1 4.0 0.0 14 37
r 7.950013 3 5 tcp 1040 ------- 2 1.0 5.0 2 20
+ 7.950013 5 3 ack 40 ------- 2 5.0 1.0 2 38
- 7.950013 5 3 ack 40 ------- 2 5.0 1.0 2 38
r 8.250026 3 5 tcp 1040 ------- 2 1.0 5.0 3 29
+ 8.250026 5 3 ack 40 ------- 2 5.0 1.0 3 39
- 8.250026 5 3 ack 40 ------- 2 5.0 1.0 3 39
r 8.40004 2 0 ack 40 ------- 1 4.0 0.0 7 30
8.40004  0  0  4  0  ack_ 7
8.40004  0  0  4  0  cwnd_ 9.000 
+ 8.40004 0 2 tcp 1040 ------- 1 0.0 4.0 15 40
- 8.40004 0 2 tcp 1040 ------- 1 0.0 4.0 15 40
8.40004  0  0  4  0  maxseq_ 15
+ 8.40004 0 2 tcp 1040 ------- 1 0.0 4.0 16 41
8.40004  0  0  4  0  maxseq_ 16
- 8.400042 0 2 tcp 1040 ------- 1 0.0 4.0 16 41
r 8.400048 2 0 ack 40 ------- 1 4.0 0.0 8 31
8.40005  0  0  4  0  ack_ 8
8.40005  0  0  4  0  cwnd_ 10.000
+ 8.400048 0 2 tcp 1040 ------- 1 0.0 4.0 17 42
- 8.400048 0 2 tcp 1040 ------- 1 0.0 4.0 17 42
8.40005  0  0  4  0  maxseq_ 17
+ 8.400048 0 2 tcp 1040 ------- 1 0.0 4.0 18 43
8.40005  0  0  4  0  maxseq_ 18
- 8.40005 0 2 tcp 1040 ------- 1 0.0 4.0 18 43
r 8.400056 2 0 ack 40 ------- 1 4.0 0.0 9 32
8.40006  0  0  4  0  ack_ 9
8.40006  0  0  4  0  cwnd_ 11.000
+ 8.400056 0 2 tcp 1040 ------- 1 0.0 4.0 19 44
- 8.400056 0 2 tcp 1040 ------- 1 0.0 4.0 19 44
8.40006  0  0  4  0  maxseq_ 19
+ 8.400056 0 2 tcp 1040 ------- 1 0.0 4.0 20 45
8.40006  0  0  4  0  maxseq_ 20
- 8.400059 0 2 tcp 1040 ------- 1 0.0 4.0 20 45
r 8.400065 2 0 ack 40 ------- 1 4.0 0.0 10 33
8.40006  0  0  4  0  ack_ 10
8.40006  0  0  4  0  cwnd_ 12.000
+ 8.400065 0 2 tcp 1040 ------- 1 0.0 4.0 21 46
- 8.400065 0 2 tcp 1040 ------- 1 0.0 4.0 21 46
8.40006  0  0  4  0  maxseq_ 21
+ 8.400065 0 2 tcp 1040 ------- 1 0.0 4.0 22 47
8.40006  0  0  4  0  maxseq_ 22
- 8.400067 0 2 tcp 1040 ------- 1 0.0 4.0 22 47
r 8.400073 2 0 ack 40 ------- 1 4.0 0.0 11 34
8.40007  0  0  4  0  ack_ 11
8.40007  0  0  4  0  cwnd_ 13.000
+ 8.400073 0 2 tcp 1040 ------- 1 0.0 4.0 23 48
- 8.400073 0 2 tcp 1040 ------- 1 0.0 4.0 23 48
8.40007  0  0  4  0  maxseq_ 23
+ 8.400073 0 2 tcp 1040 ------- 1 0.0 4.0 24 49
8.40007  0  0  4  0  maxseq_ 24
- 8.400075 0 2 tcp 1040 ------- 1 0.0 4.0 24 49
r 8.400081 2 0 ack 40 ------- 1 4.0 0.0 12 35
8.40008  0  0  4  0  ack_ 12
8.40008  0  0  4  0  cwnd_ 14.000
+ 8.400081 0 2 tcp 1040 ------- 1 0.0 4.0 25 50
- 8.400081 0 2 tcp 1040 ------- 1 0.0 4.0 25 50
8.40008  0  0  4  0  maxseq_ 25
+ 8.400081 0 2 tcp 1040 ------- 1 0.0 4.0 26 51
8.40008  0  0  4  0  maxseq_ 26
- 8.400084 0 2 tcp 1040 ------- 1 0.0 4.0 26 51
r 8.40009 2 0 ack 40 ------- 1 4.0 0.0 13 36
8.40009  0  0  4  0  ack_ 13
8.40009  0  0  4  0  cwnd_ 15.000
+ 8.40009 0 2 tcp 1040 ------- 1 0.0 4.0 27 52
- 8.40009 0 2 tcp 1040 ------- 1 0.0 4.0 27 52
8.40009  0  0  4  0  maxseq_ 27
+ 8.40009 0 2 tcp 1040 ------- 1 0.0 4.0 28 53
8.40009  0  0  4  0  maxseq_ 28
- 8.400092 0 2 tcp 1040 ------- 1 0.0 4.0 28 53
r 8.400098 2 0 ack 40 ------- 1 4.0 0.0 14 37
8.40010  0  0  4  0  ack_ 14
8.40010  0  0  4  0  cwnd_ 16.000
+ 8.400098 0 2 tcp 1040 ------- 1 0.0 4.0 29 54
- 8.400098 0 2 tcp 1040 ------- 1 0.0 4.0 29 54
8.40010  0  0  4  0  maxseq_ 29
+ 8.400098 0 2 tcp 1040 ------- 1 0.0 4.0 30 55
8.40010  0  0  4  0  maxseq_ 30
- 8.4001 0 2 tcp 1040 ------- 1 0.0 4.0 30 55
r 8.750014 5 3 ack 40 ------- 2 5.0 1.0 2 38
+ 8.750014 3 2 ack 40 ------- 2 5.0 1.0 2 38
- 8.750014 3 2 ack 40 ------- 2 5.0 1.0 2 38
r 8.800014 3 2 ack 40 ------- 2 5.0 1.0 2 38
+ 8.800014 2 1 ack 40 ------- 2 5.0 1.0 2 38
- 8.800014 2 1 ack 40 ------- 2 5.0 1.0 2 38
r 8.900042 0 2 tcp 1040 ------- 1 0.0 4.0 15 40
+ 8.900042 2 3 tcp 1040 ------- 1 0.0 4.0 15 40
- 8.900042 2 3 tcp 1040 ------- 1 0.0 4.0 15 40
r 8.900044 0 2 tcp 1040 ------- 1 0.0 4.0 16 41
+ 8.900044 2 3 tcp 1040 ------- 1 0.0 4.0 16 41
- 8.90005 2 3 tcp 1040 ------- 1 0.0 4.0 16 41
r 8.90005 0 2 tcp 1040 ------- 1 0.0 4.0 17 42
+ 8.90005 2 3 tcp 1040 ------- 1 0.0 4.0 17 42
r 8.900052 0 2 tcp 1040 ------- 1 0.0 4.0 18 43
+ 8.900052 2 3 tcp 1040 ------- 1 0.0 4.0 18 43
- 8.900059 2 3 tcp 1040 ------- 1 0.0 4.0 17 42
r 8.900059 0 2 tcp 1040 ------- 1 0.0 4.0 19 44
+ 8.900059 2 3 tcp 1040 ------- 1 0.0 4.0 19 44
r 8.900061 0 2 tcp 1040 ------- 1 0.0 4.0 20 45
+ 8.900061 2 3 tcp 1040 ------- 1 0.0 4.0 20 45
- 8.900067 2 3 tcp 1040 ------- 1 0.0 4.0 18 43
r 8.900067 0 2 tcp 1040 ------- 1 0.0 4.0 21 46
+ 8.900067 2 3 tcp 1040 ------- 1 0.0 4.0 21 46
r 8.900069 0 2 tcp 1040 ------- 1 0.0 4.0 22 47
+ 8.900069 2 3 tcp 1040 ------- 1 0.0 4.0 22 47
- 8.900075 2 3 tcp 1040 ------- 1 0.0 4.0 19 44
r 8.900075 0 2 tcp 1040 ------- 1 0.0 4.0 23 48
+ 8.900075 2 3 tcp 1040 ------- 1 0.0 4.0 23 48
r 8.900077 0 2 tcp 1040 ------- 1 0.0 4.0 24 49
+ 8.900077 2 3 tcp 1040 ------- 1 0.0 4.0 24 49
- 8.900084 2 3 tcp 1040 ------- 1 0.0 4.0 20 45
r 8.900084 0 2 tcp 1040 ------- 1 0.0 4.0 25 50
+ 8.900084 2 3 tcp 1040 ------- 1 0.0 4.0 25 50
r 8.900086 0 2 tcp 1040 ------- 1 0.0 4.0 26 51
+ 8.900086 2 3 tcp 1040 ------- 1 0.0 4.0 26 51
- 8.900092 2 3 tcp 1040 ------- 1 0.0 4.0 21 46
r 8.900092 0 2 tcp 1040 ------- 1 0.0 4.0 27 52
+ 8.900092 2 3 tcp 1040 ------- 1 0.0 4.0 27 52
r 8.900094 0 2 tcp 1040 ------- 1 0.0 4.0 28 53
+ 8.900094 2 3 tcp 1040 ------- 1 0.0 4.0 28 53
- 8.9001 2 3 tcp 1040 ------- 1 0.0 4.0 22 47
r 8.9001 0 2 tcp 1040 ------- 1 0.0 4.0 29 54
+ 8.9001 2 3 tcp 1040 ------- 1 0.0 4.0 29 54
r 8.900102 0 2 tcp 1040 ------- 1 0.0 4.0 30 55
+ 8.900102 2 3 tcp 1040 ------- 1 0.0 4.0 30 55
- 8.900108 2 3 tcp 1040 ------- 1 0.0 4.0 23 48
- 8.900117 2 3 tcp 1040 ------- 1 0.0 4.0 24 49
- 8.900125 2 3 tcp 1040 ------- 1 0.0 4.0 25 50
- 8.900133 2 3 tcp 1040 ------- 1 0.0 4.0 26 51
- 8.900142 2 3 tcp 1040 ------- 1 0.0 4.0 27 52
- 8.90015 2 3 tcp 1040 ------- 1 0.0 4.0 28 53
- 8.900158 2 3 tcp 1040 ------- 1 0.0 4.0 29 54
- 8.900167 2 3 tcp 1040 ------- 1 0.0 4.0 30 55
r 8.95005 2 3 tcp 1040 ------- 1 0.0 4.0 15 40
+ 8.95005 3 4 tcp 1040 ------- 1 0.0 4.0 15 40
- 8.95005 3 4 tcp 1040 ------- 1 0.0 4.0 15 40
r 8.950059 2 3 tcp 1040 ------- 1 0.0 4.0 16 41
+ 8.950059 3 4 tcp 1040 ------- 1 0.0 4.0 16 41
- 8.950059 3 4 tcp 1040 ------- 1 0.0 4.0 16 41
r 8.950067 2 3 tcp 1040 ------- 1 0.0 4.0 17 42
+ 8.950067 3 4 tcp 1040 ------- 1 0.0 4.0 17 42
- 8.950067 3 4 tcp 1040 ------- 1 0.0 4.0 17 42
r 8.950075 2 3 tcp 1040 ------- 1 0.0 4.0 18 43
+ 8.950075 3 4 tcp 1040 ------- 1 0.0 4.0 18 43
- 8.950075 3 4 tcp 1040 ------- 1 0.0 4.0 18 43
r 8.950084 2 3 tcp 1040 ------- 1 0.0 4.0 19 44
+ 8.950084 3 4 tcp 1040 ------- 1 0.0 4.0 19 44
- 8.950084 3 4 tcp 1040 ------- 1 0.0 4.0 19 44
r 8.950092 2 3 tcp 1040 ------- 1 0.0 4.0 20 45
+ 8.950092 3 4 tcp 1040 ------- 1 0.0 4.0 20 45
- 8.950092 3 4 tcp 1040 ------- 1 0.0 4.0 20 45
r 8.9501 2 3 tcp 1040 ------- 1 0.0 4.0 21 46
+ 8.9501 3 4 tcp 1040 ------- 1 0.0 4.0 21 46
- 8.9501 3 4 tcp 1040 ------- 1 0.0 4.0 21 46
r 8.950108 2 3 tcp 1040 ------- 1 0.0 4.0 22 47
+ 8.950108 3 4 tcp 1040 ------- 1 0.0 4.0 22 47
- 8.950108 3 4 tcp 1040 ------- 1 0.0 4.0 22 47
r 8.950117 2 3 tcp 1040 ------- 1 0.0 4.0 23 48
+ 8.950117 3 4 tcp 1040 ------- 1 0.0 4.0 23 48
- 8.950117 3 4 tcp 1040 ------- 1 0.0 4.0 23 48
r 8.950125 2 3 tcp 1040 ------- 1 0.0 4.0 24 49
+ 8.950125 3 4 tcp 1040 ------- 1 0.0 4.0 24 49
- 8.950125 3 4 tcp 1040 ------- 1 0.0 4.0 24 49
r 8.950133 2 3 tcp 1040 ------- 1 0.0 4.0 25 50
+ 8.950133 3 4 tcp 1040 ------- 1 0.0 4.0 25 50
- 8.950133 3 4 tcp 1040 ------- 1 0.0 4.0 25 50
r 8.950142 2 3 tcp 1040 ------- 1 0.0 4.0 26 51
+ 8.950142 3 4 tcp 1040 ------- 1 0.0 4.0 26 51
- 8.950142 3 4 tcp 1040 ------- 1 0.0 4.0 26 51
r 8.95015 2 3 tcp 1040 ------- 1 0.0 4.0 27 52
+ 8.95015 3 4 tcp 1040 ------- 1 0.0 4.0 27 52
- 8.95015 3 4 tcp 1040 ------- 1 0.0 4.0 27 52
r 8.950158 2 3 tcp 1040 ------- 1 0.0 4.0 28 53
+ 8.950158 3 4 tcp 1040 ------- 1 0.0 4.0 28 53
- 8.950158 3 4 tcp 1040 ------- 1 0.0 4.0 28 53
r 8.950167 2 3 tcp 1040 ------- 1 0.0 4.0 29 54
+ 8.950167 3 4 tcp 1040 ------- 1 0.0 4.0 29 54
- 8.950167 3 4 tcp 1040 ------- 1 0.0 4.0 29 54
r 8.950175 2 3 tcp 1040 ------- 1 0.0 4.0 30 55
+ 8.950175 3 4 tcp 1040 ------- 1 0.0 4.0 30 55
- 8.950175 3 4 tcp 1040 ------- 1 0.0 4.0 30 55
r 9.050026 5 3 ack 40 ------- 2 5.0 1.0 3 39
+ 9.050026 3 2 ack 40 ------- 2 5.0 1.0 3 39
- 9.050026 3 2 ack 40 ------- 2 5.0 1.0 3 39
r 9.100027 3 2 ack 40 ------- 2 5.0 1.0 3 39
+ 9.100027 2 1 ack 40 ------- 2 5.0 1.0 3 39
- 9.100027 2 1 ack 40 ------- 2 5.0 1.0 3 39
r 9.450052 3 4 tcp 1040 ------- 1 0.0 4.0 15 40
+ 9.450052 4 3 ack 40 ------- 1 4.0 0.0 15 56
- 9.450052 4 3 ack 40 ------- 1 4.0 0.0 15 56
r 9.450061 3 4 tcp 1040 ------- 1 0.0 4.0 16 41
+ 9.450061 4 3 ack 40 ------- 1 4.0 0.0 16 57
- 9.450061 4 3 ack 40 ------- 1 4.0 0.0 16 57
r 9.450069 3 4 tcp 1040 ------- 1 0.0 4.0 17 42
+ 9.450069 4 3 ack 40 ------- 1 4.0 0.0 17 58
- 9.450069 4 3 ack 40 ------- 1 4.0 0.0 17 58
r 9.450077 3 4 tcp 1040 ------- 1 0.0 4.0 18 43
+ 9.450077 4 3 ack 40 ------- 1 4.0 0.0 18 59
- 9.450077 4 3 ack 40 ------- 1 4.0 0.0 18 59
r 9.450086 3 4 tcp 1040 ------- 1 0.0 4.0 19 44
+ 9.450086 4 3 ack 40 ------- 1 4.0 0.0 19 60
- 9.450086 4 3 ack 40 ------- 1 4.0 0.0 19 60
r 9.450094 3 4 tcp 1040 ------- 1 0.0 4.0 20 45
+ 9.450094 4 3 ack 40 ------- 1 4.0 0.0 20 61
- 9.450094 4 3 ack 40 ------- 1 4.0 0.0 20 61
r 9.450102 3 4 tcp 1040 ------- 1 0.0 4.0 21 46
+ 9.450102 4 3 ack 40 ------- 1 4.0 0.0 21 62
- 9.450102 4 3 ack 40 ------- 1 4.0 0.0 21 62
r 9.450111 3 4 tcp 1040 ------- 1 0.0 4.0 22 47
+ 9.450111 4 3 ack 40 ------- 1 4.0 0.0 22 63
- 9.450111 4 3 ack 40 ------- 1 4.0 0.0 22 63
r 9.450119 3 4 tcp 1040 ------- 1 0.0 4.0 23 48
+ 9.450119 4 3 ack 40 ------- 1 4.0 0.0 23 64
- 9.450119 4 3 ack 40 ------- 1 4.0 0.0 23 64
r 9.450127 3 4 tcp 1040 ------- 1 0.0 4.0 24 49
+ 9.450127 4 3 ack 40 ------- 1 4.0 0.0 24 65
- 9.450127 4 3 ack 40 ------- 1 4.0 0.0 24 65
r 9.450136 3 4 tcp 1040 ------- 1 0.0 4.0 25 50
+ 9.450136 4 3 ack 40 ------- 1 4.0 0.0 25 66
- 9.450136 4 3 ack 40 ------- 1 4.0 0.0 25 66
r 9.450144 3 4 tcp 1040 ------- 1 0.0 4.0 26 51
+ 9.450144 4 3 ack 40 ------- 1 4.0 0.0 26 67
- 9.450144 4 3 ack 40 ------- 1 4.0 0.0 26 67
r 9.450152 3 4 tcp 1040 ------- 1 0.0 4.0 27 52
+ 9.450152 4 3 ack 40 ------- 1 4.0 0.0 27 68
- 9.450152 4 3 ack 40 ------- 1 4.0 0.0 27 68
r 9.45016 3 4 tcp 1040 ------- 1 0.0 4.0 28 53
+ 9.45016 4 3 ack 40 ------- 1 4.0 0.0 28 69
- 9.45016 4 3 ack 40 ------- 1 4.0 0.0 28 69
r 9.450169 3 4 tcp 1040 ------- 1 0.0 4.0 29 54
+ 9.450169 4 3 ack 40 ------- 1 4.0 0.0 29 70
- 9.450169 4 3 ack 40 ------- 1 4.0 0.0 29 70
r 9.450177 3 4 tcp 1040 ------- 1 0.0 4.0 30 55
+ 9.450177 4 3 ack 40 ------- 1 4.0 0.0 30 71
- 9.450177 4 3 ack 40 ------- 1 4.0 0.0 30 71
r 9.600014 2 1 ack 40 ------- 2 5.0 1.0 2 38
9.60001  1  0  5  0  ack_ 2
9.60001  1  0  5  0  cwnd_ 2.500 
+ 9.600014 1 2 tcp 1040 ------- 2 1.0 5.0 4 72
- 9.600014 1 2 tcp 1040 ------- 2 1.0 5.0 4 72
9.60001  1  0  5  0  maxseq_ 4
r 9.900027 2 1 ack 40 ------- 2 5.0 1.0 3 39
9.90003  1  0  5  0  ack_ 3
9.90003  1  0  5  0  cwnd_ 2.900 
+ 9.900027 1 2 tcp 1040 ------- 2 1.0 5.0 5 73
- 9.900027 1 2 tcp 1040 ------- 2 1.0 5.0 5 73
9.90003  1  0  5  0  maxseq_ 5
r 9.950052 4 3 ack 40 ------- 1 4.0 0.0 15 56
+ 9.950052 3 2 ack 40 ------- 1 4.0 0.0 15 56
- 9.950052 3 2 ack 40 ------- 1 4.0 0.0 15 56
r 9.950061 4 3 ack 40 ------- 1 4.0 0.0 16 57
+ 9.950061 3 2 ack 40 ------- 1 4.0 0.0 16 57
- 9.950061 3 2 ack 40 ------- 1 4.0 0.0 16 57
r 9.950069 4 3 ack 40 ------- 1 4.0 0.0 17 58
+ 9.950069 3 2 ack 40 ------- 1 4.0 0.0 17 58
- 9.950069 3 2 ack 40 ------- 1 4.0 0.0 17 58
r 9.950077 4 3 ack 40 ------- 1 4.0 0.0 18 59
+ 9.950077 3 2 ack 40 ------- 1 4.0 0.0 18 59
- 9.950077 3 2 ack 40 ------- 1 4.0 0.0 18 59
r 9.950086 4 3 ack 40 ------- 1 4.0 0.0 19 60
+ 9.950086 3 2 ack 40 ------- 1 4.0 0.0 19 60
- 9.950086 3 2 ack 40 ------- 1 4.0 0.0 19 60
r 9.950094 4 3 ack 40 ------- 1 4.0 0.0 20 61
+ 9.950094 3 2 ack 40 ------- 1 4.0 0.0 20 61
- 9.950094 3 2 ack 40 ------- 1 4.0 0.0 20 61
r 9.950102 4 3 ack 40 ------- 1 4.0 0.0 21 62
+ 9.950102 3 2 ack 40 ------- 1 4.0 0.0 21 62
- 9.950102 3 2 ack 40 ------- 1 4.0 0.0 21 62
r 9.950111 4 3 ack 40 ------- 1 4.0 0.0 22 63
+ 9.950111 3 2 ack 40 ------- 1 4.0 0.0 22 63
- 9.950111 3 2 ack 40 ------- 1 4.0 0.0 22 63
r 9.950119 4 3 ack 40 ------- 1 4.0 0.0 23 64
+ 9.950119 3 2 ack 40 ------- 1 4.0 0.0 23 64
- 9.950119 3 2 ack 40 ------- 1 4.0 0.0 23 64
r 9.950127 4 3 ack 40 ------- 1 4.0 0.0 24 65
+ 9.950127 3 2 ack 40 ------- 1 4.0 0.0 24 65
- 9.950127 3 2 ack 40 ------- 1 4.0 0.0 24 65
r 9.950136 4 3 ack 40 ------- 1 4.0 0.0 25 66
+ 9.950136 3 2 ack 40 ------- 1 4.0 0.0 25 66
- 9.950136 3 2 ack 40 ------- 1 4.0 0.0 25 66
r 9.950144 4 3 ack 40 ------- 1 4.0 0.0 26 67
+ 9.950144 3 2 ack 40 ------- 1 4.0 0.0 26 67
- 9.950144 3 2 ack 40 ------- 1 4.0 0.0 26 67
r 9.950152 4 3 ack 40 ------- 1 4.0 0.0 27 68
+ 9.950152 3 2 ack 40 ------- 1 4.0 0.0 27 68
- 9.950152 3 2 ack 40 ------- 1 4.0 0.0 27 68
r 9.950161 4 3 ack 40 ------- 1 4.0 0.0 28 69
+ 9.950161 3 2 ack 40 ------- 1 4.0 0.0 28 69
- 9.950161 3 2 ack 40 ------- 1 4.0 0.0 28 69
r 9.950169 4 3 ack 40 ------- 1 4.0 0.0 29 70
+ 9.950169 3 2 ack 40 ------- 1 4.0 0.0 29 70
- 9.950169 3 2 ack 40 ------- 1 4.0 0.0 29 70
r 9.950177 4 3 ack 40 ------- 1 4.0 0.0 30 71
+ 9.950177 3 2 ack 40 ------- 1 4.0 0.0 30 71
- 9.950177 3 2 ack 40 ------- 1 4.0 0.0 30 71