0.00000  0  0  4  0  cwnd_ 2.000 
0.00000  0  0  4  0  ssthresh_ 20
0.00000  0  0  4  0  ack_ -1
0.00000  0  0  4  0  maxseq_ -1
0.00000  0  0  4  0  rtt_ 0.000 
0.00000  1  0  5  0  cwnd_ 2.000 
0.00000  1  0  5  0  ssthresh_ 20
0.00000  1  0  5  0  ack_ -1
0.00000  1  0  5  0  maxseq_ -1
0.00000  1  0  5  0  rtt_ 0.000 
0.00000  0  0  4  0  ssthresh_ 1000
0.00000  1  0  5  0  ssthresh_ 1000
+ 0 1 2 tcp 40 ------- 2 1.0 5.0 0 0
- 0 1 2 tcp 40 ------- 2 1.0 5.0 0 0
0.00000  1  0  5  0  maxseq_ 0
+ 0 1 2 tcp 1040 ------- 2 1.0 5.0 1 1
0.00000  1  0  5  0  maxseq_ 1
+ 0 0 2 tcp 40 ------- 1 0.0 4.0 0 2
- 0 0 2 tcp 40 ------- 1 0.0 4.0 0 2
0.00000  0  0  4  0  maxseq_ 0
+ 0 0 2 tcp 1040 ------- 1 0.0 4.0 1 3
0.00000  0  0  4  0  maxseq_ 1
- 0 1 2 tcp 1040 ------- 2 1.0 5.0 1 1
- 0 0 2 tcp 1040 ------- 1 0.0 4.0 1 3
r 0.5 0 2 tcp 40 ------- 1 0.0 4.0 0 2
+ 0.5 2 3 tcp 40 ------- 1 0.0 4.0 0 2
- 0.5 2 3 tcp 40 ------- 1 0.0 4.0 0 2
r 0.500002 0 2 tcp 1040 ------- 1 0.0 4.0 1 3
+ 0.500002 2 3 tcp 1040 ------- 1 0.0 4.0 1 3
- 0.500002 2 3 tcp 1040 ------- 1 0.0 4.0 1 3
r 0.55 2 3 tcp 40 ------- 1 0.0 4.0 0 2
+ 0.55 3 4 tcp 40 ------- 1 0.0 4.0 0 2
- 0.55 3 4 tcp 40 ------- 1 0.0 4.0 0 2
r 0.55001 2 3 tcp 1040 ------- 1 0.0 4.0 1 3
+ 0.55001 3 4 tcp 1040 ------- 1 0.0 4.0 1 3
- 0.55001 3 4 tcp 1040 ------- 1 0.0 4.0 1 3
r 0.8 1 2 tcp 40 ------- 2 1.0 5.0 0 0
+ 0.8 2 3 tcp 40 ------- 2 1.0 5.0 0 0
- 0.8 2 3 tcp 40 ------- 2 1.0 5.0 0 0
r 0.800002 1 2 tcp 1040 ------- 2 1.0 5.0 1 1
+ 0.800002 2 3 tcp 1040 ------- 2 1.0 5.0 1 1
- 0.800002 2 3 tcp 1040 ------- 2 1.0 5.0 1 1
r 0.85 2 3 tcp 40 ------- 2 1.0 5.0 0 0
+ 0.85 3 5 tcp 40 ------- 2 1.0 5.0 0 0
- 0.85 3 5 tcp 40 ------- 2 1.0 5.0 0 0
r 0.85001 2 3 tcp 1040 ------- 2 1.0 5.0 1 1
+ 0.85001 3 5 tcp 1040 ------- 2 1.0 5.0 1 1
- 0.85001 3 5 tcp 1040 ------- 2 1.0 5.0 1 1
r 1.05 3 4 tcp 40 ------- 1 0.0 4.0 0 2
+ 1.05 4 3 ack 40 ------- 1 4.0 0.0 0 4
- 1.05 4 3 ack 40 ------- 1 4.0 0.0 0 4
r 1.050013 3 4 tcp 1040 ------- 1 0.0 4.0 1 3
+ 1.050013 4 3 ack 40 ------- 1 4.0 0.0 1 5
- 1.050013 4 3 ack 40 ------- 1 4.0 0.0 1 5
r 1.550001 4 3 ack 40 ------- 1 4.0 0.0 0 4
+ 1.550001 3 2 ack 40 ------- 1 4.0 0.0 0 4
- 1.550001 3 2 ack 40 ------- 1 4.0 0.0 0 4
r 1.550013 4 3 ack 40 ------- 1 4.0 0.0 1 5
+ 1.550013 3 2 ack 40 ------- 1 4.0 0.0 1 5
- 1.550013 3 2 ack 40 ------- 1 4.0 0.0 1 5
r 1.600001 3 2 ack 40 ------- 1 4.0 0.0 0 4
+ 1.600001 2 0 ack 40 ------- 1 4.0 0.0 0 4
- 1.600001 2 0 ack 40 ------- 1 4.0 0.0 0 4
r 1.600013 3 2 ack 40 ------- 1 4.0 0.0 1 5
+ 1.600013 2 0 ack 40 ------- 1 4.0 0.0 1 5
- 1.600013 2 0 ack 40 ------- 1 4.0 0.0 1 5
r 1.65 3 5 tcp 40 ------- 2 1.0 5.0 0 0
+ 1.65 5 3 ack 40 ------- 2 5.0 1.0 0 6
- 1.65 5 3 ack 40 ------- 2 5.0 1.0 0 6
r 1.650013 3 5 tcp 1040 ------- 2 1.0 5.0 1 1
+ 1.650013 5 3 ack 40 ------- 2 5.0 1.0 1 7
- 1.650013 5 3 ack 40 ------- 2 5.0 1.0 1 7
r 2.100001 2 0 ack 40 ------- 1 4.0 0.0 0 4
2.10000  0  0  4  0  ack_ 0
2.10000  0  0  4  0  rtt_ 2.100 
2.10000  0  0  4  0  cwnd_ 3.000 
+ 2.100001 0 2 tcp 1040 ------- 1 0.0 4.0 2 8
- 2.100001 0 2 tcp 1040 ------- 1 0.0 4.0 2 8
2.10000  0  0  4  0  maxseq_ 2
+ 2.100001 0 2 tcp 1040 ------- 1 0.0 4.0 3 9
2.10000  0  0  4  0  maxseq_ 3
- 2.100003 0 2 tcp 1040 ------- 1 0.0 4.0 3 9
r 2.100013 2 0 ack 40 ------- 1 4.0 0.0 1 5
2.10001  0  0  4  0  ack_ 1
2.10001  0  0  4  0  cwnd_ 4.000 
+ 2.100013 0 2 tcp 1040 ------- 1 0.0 4.0 4 10
- 2.100013 0 2 tcp 1040 ------- 1 0.0 4.0 4 10
2.10001  0  0  4  0  maxseq_ 4
+ 2.100013 0 2 tcp 1040 ------- 1 0.0 4.0 5 11
2.10001  0  0  4  0  maxseq_ 5
- 2.100015 0 2 tcp 1040 ------- 1 0.0 4.0 5 11
r 2.450001 5 3 ack 40 ------- 2 5.0 1.0 0 6
+ 2.450001 3 2 ack 40 ------- 2 5.0 1.0 0 6
- 2.450001 3 2 ack 40 ------- 2 5.0 1.0 0 6
r 2.450013 5 3 ack 40 ------- 2 5.0 1.0 1 7
+ 2.450013 3 2 ack 40 ------- 2 5.0 1.0 1 7
- 2.450013 3 2 ack 40 ------- 2 5.0 1.0 1 7
r 2.500001 3 2 ack 40 ------- 2 5.0 1.0 0 6
+ 2.500001 2 1 ack 40 ------- 2 5.0 1.0 0 6
- 2.500001 2 1 ack 40 ------- 2 5.0 1.0 0 6
r 2.500013 3 2 ack 40 ------- 2 5.0 1.0 1 7
+ 2.500013 2 1 ack 40 ------- 2 5.0 1.0 1 7
- 2.500013 2 1 ack 40 ------- 2 5.0 1.0 1 7
r 2.600003 0 2 tcp 1040 ------- 1 0.0 4.0 2 8
+ 2.600003 2 3 tcp 1040 ------- 1 0.0 4.0 2 8
- 2.600003 2 3 tcp 1040 ------- 1 0.0 4.0 2 8
r 2.600005 0 2 tcp 1040 ------- 1 0.0 4.0 3 9
+ 2.600005 2 3 tcp 1040 ------- 1 0.0 4.0 3 9
- 2.600011 2 3 tcp 1040 ------- 1 0.0 4.0 3 9
r 2.600015 0 2 tcp 1040 ------- 1 0.0 4.0 4 10
+ 2.600015 2 3 tcp 1040 ------- 1 0.0 4.0 4 10
r 2.600017 0 2 tcp 1040 ------- 1 0.0 4.0 5 11
+ 2.600017 2 3 tcp 1040 ------- 1 0.0 4.0 5 11
- 2.60002 2 3 tcp 1040 ------- 1 0.0 4.0 4 10
- 2.600028 2 3 tcp 1040 ------- 1 0.0 4.0 5 11
r 2.650011 2 3 tcp 1040 ------- 1 0.0 4.0 2 8
+ 2.650011 3 4 tcp 1040 ------- 1 0.0 4.0 2 8
- 2.650011 3 4 tcp 1040 ------- 1 0.0 4.0 2 8
r 2.65002 2 3 tcp 1040 ------- 1 0.0 4.0 3 9
+ 2.65002 3 4 tcp 1040 ------- 1 0.0 4.0 3 9
- 2.65002 3 4 tcp 1040 ------- 1 0.0 4.0 3 9
r 2.650028 2 3 tcp 1040 ------- 1 0.0 4.0 4 10
+ 2.650028 3 4 tcp 1040 ------- 1 0.0 4.0 4 10
- 2.650028 3 4 tcp 1040 ------- 1 0.0 4.0 4 10
r 2.650036 2 3 tcp 1040 ------- 1 0.0 4.0 5 11
+ 2.650036 3 4 tcp 1040 ------- 1 0.0 4.0 5 11
- 2.650036 3 4 tcp 1040 ------- 1 0.0 4.0 5 11
3.00000  1  0  5  0  cwnd_ 1.000 
3.00000  1  0  5  0  ssthresh_ 2
+ 3 1 2 tcp 40 ---A--- 2 1.0 5.0 0 12
- 3 1 2 tcp 40 ---A--- 2 1.0 5.0 0 12
r 3.150013 3 4 tcp 1040 ------- 1 0.0 4.0 2 8
+ 3.150013 4 3 ack 40 ------- 1 4.0 0.0 2 13
- 3.150013 4 3 ack 40 ------- 1 4.0 0.0 2 13
r 3.150022 3 4 tcp 1040 ------- 1 0.0 4.0 3 9
+ 3.150022 4 3 ack 40 ------- 1 4.0 0.0 3 14
- 3.150022 4 3 ack 40 ------- 1 4.0 0.0 3 14
r 3.15003 3 4 tcp 1040 ------- 1 0.0 4.0 4 10
+ 3.15003 4 3 ack 40 ------- 1 4.0 0.0 4 15
- 3.15003 4 3 ack 40 ------- 1 4.0 0.0 4 15
r 3.150038 3 4 tcp 1040 ------- 1 0.0 4.0 5 11
+ 3.150038 4 3 ack 40 ------- 1 4.0 0.0 5 16
- 3.150038 4 3 ack 40 ------- 1 4.0 0.0 5 16
r 3.300001 2 1 ack 40 ------- 2 5.0 1.0 0 6
3.30000  1  0  5  0  ack_ 0
3.30000  1  0  5  0  cwnd_ 2.000 
+ 3.300001 1 2 tcp 1040 ------- 2 1.0 5.0 1 17
- 3.300001 1 2 tcp 1040 ------- 2 1.0 5.0 1 17
+ 3.300001 1 2 tcp 1040 ------- 2 1.0 5.0 2 18
3.30000  1  0  5  0  maxseq_ 2
- 3.300003 1 2 tcp 1040 ------- 2 1.0 5.0 2 18
r 3.300013 2 1 ack 40 ------- 2 5.0 1.0 1 7
3.30001  1  0  5  0  ack_ 1
3.30001  1  0  5  0  cwnd_ 3.000 
+ 3.300013 1 2 tcp 1040 ------- 2 1.0 5.0 3 19
- 3.300013 1 2 tcp 1040 ------- 2 1.0 5.0 3 19
3.30001  1  0  5  0  maxseq_ 3
+ 3.300013 1 2 tcp 1040 ------- 2 1.0 5.0 4 20
3.30001  1  0  5  0  maxseq_ 4
- 3.300015 1 2 tcp 1040 ------- 2 1.0 5.0 4 20
r 3.650014 4 3 ack 40 ------- 1 4.0 0.0 2 13
+ 3.650014 3 2 ack 40 ------- 1 4.0 0.0 2 13
- 3.650014 3 2 ack 40 ------- 1 4.0 0.0 2 13
r 3.650022 4 3 ack 40 ------- 1 4.0 0.0 3 14
+ 3.650022 3 2 ack 40 ------- 1 4.0 0.0 3 14
- 3.650022 3 2 ack 40 ------- 1 4.0 0.0 3 14
r 3.65003 4 3 ack 40 ------- 1 4.0 0.0 4 15
+ 3.65003 3 2 ack 40 ------- 1 4.0 0.0 4 15
- 3.65003 3 2 ack 40 ------- 1 4.0 0.0 4 15
r 3.650038 4 3 ack 40 ------- 1 4.0 0.0 5 16
+ 3.650038 3 2 ack 40 ------- 1 4.0 0.0 5 16
- 3.650038 3 2 ack 40 ------- 1 4.0 0.0 5 16
r 3.700014 3 2 ack 40 ------- 1 4.0 0.0 2 13
+ 3.700014 2 0 ack 40 ------- 1 4.0 0.0 2 13
- 3.700014 2 0 ack 40 ------- 1 4.0 0.0 2 13
r 3.700022 3 2 ack 40 ------- 1 4.0 0.0 3 14
+ 3.700022 2 0 ack 40 ------- 1 4.0 0.0 3 14
- 3.700022 2 0 ack 40 ------- 1 4.0 0.0 3 14
r 3.70003 3 2 ack 40 ------- 1 4.0 0.0 4 15
+ 3.70003 2 0 ack 40 ------- 1 4.0 0.0 4 15
- 3.70003 2 0 ack 40 ------- 1 4.0 0.0 4 15
r 3.700039 3 2 ack 40 ------- 1 4.0 0.0 5 16
+ 3.700039 2 0 ack 40 ------- 1 4.0 0.0 5 16
- 3.700039 2 0 ack 40 ------- 1 4.0 0.0 5 16
r 3.8 1 2 tcp 40 ---A--- 2 1.0 5.0 0 12
+ 3.8 2 3 tcp 40 ---A--- 2 1.0 5.0 0 12
- 3.8 2 3 tcp 40 ---A--- 2 1.0 5.0 0 12
r 3.85 2 3 tcp 40 ---A--- 2 1.0 5.0 0 12
+ 3.85 3 5 tcp 40 ---A--- 2 1.0 5.0 0 12
- 3.85 3 5 tcp 40 ---A--- 2 1.0 5.0 0 12
r 4.100003 1 2 tcp 1040 ------- 2 1.0 5.0 1 17
+ 4.100003 2 3 tcp 1040 ------- 2 1.0 5.0 1 17
- 4.100003 2 3 tcp 1040 ------- 2 1.0 5.0 1 17
r 4.100005 1 2 tcp 1040 ------- 2 1.0 5.0 2 18
+ 4.100005 2 3 tcp 1040 ------- 2 1.0 5.0 2 18
- 4.100011 2 3 tcp 1040 ------- 2 1.0 5.0 2 18
r 4.100015 1 2 tcp 1040 ------- 2 1.0 5.0 3 19
+ 4.100015 2 3 tcp 1040 ------- 2 1.0 5.0 3 19
r 4.100017 1 2 tcp 1040 ------- 2 1.0 5.0 4 20
+ 4.100017 2 3 tcp 1040 ------- 2 1.0 5.0 4 20
- 4.10002 2 3 tcp 1040 ------- 2 1.0 5.0 3 19
- 4.100028 2 3 tcp 1040 ------- 2 1.0 5.0 4 20
r 4.150011 2 3 tcp 1040 ------- 2 1.0 5.0 1 17
+ 4.150011 3 5 tcp 1040 ------- 2 1.0 5.0 1 17
- 4.150011 3 5 tcp 1040 ------- 2 1.0 5.0 1 17
r 4.15002 2 3 tcp 1040 ------- 2 1.0 5.0 2 18
+ 4.15002 3 5 tcp 1040 ------- 2 1.0 5.0 2 18
- 4.15002 3 5 tcp 1040 ------- 2 1.0 5.0 2 18
r 4.150028 2 3 tcp 1040 ------- 2 1.0 5.0 3 19
+ 4.150028 3 5 tcp 1040 ------- 2 1.0 5.0 3 19
- 4.150028 3 5 tcp 1040 ------- 2 1.0 5.0 3 19
r 4.150036 2 3 tcp 1040 ------- 2 1.0 5.0 4 20
+ 4.150036 3 5 tcp 1040 ------- 2 1.0 5.0 4 20
- 4.150036 3 5 tcp 1040 ------- 2 1.0 5.0 4 20
r 4.200014 2 0 ack 40 ------- 1 4.0 0.0 2 13
4.20001  0  0  4  0  ack_ 2
4.20001  0  0  4  0  cwnd_ 5.000 
+ 4.200014 0 2 tcp 1040 ------- 1 0.0 4.0 6 21
- 4.200014 0 2 tcp 1040 ------- 1 0.0 4.0 6 21
4.20001  0  0  4  0  maxseq_ 6
+ 4.200014 0 2 tcp 1040 ------- 1 0.0 4.0 7 22
4.20001  0  0  4  0  maxseq_ 7
- 4.200016 0 2 tcp 1040 ------- 1 0.0 4.0 7 22
r 4.200022 2 0 ack 40 ------- 1 4.0 0.0 3 14
4.20002  0  0  4  0  ack_ 3
4.20002  0  0  4  0  cwnd_ 6.000 
+ 4.200022 0 2 tcp 1040 ------- 1 0.0 4.0 8 23
- 4.200022 0 2 tcp 1040 ------- 1 0.0 4.0 8 23
4.20002  0  0  4  0  maxseq_ 8
+ 4.200022 0 2 tcp 1040 ------- 1 0.0 4.0 9 24
4.20002  0  0  4  0  maxseq_ 9
- 4.200024 0 2 tcp 1040 ------- 1 0.0 4.0 9 24
r 4.200031 2 0 ack 40 ------- 1 4.0 0.0 4 15
4.20003  0  0  4  0  ack_ 4
4.20003  0  0  4  0  cwnd_ 7.000 
+ 4.200031 0 2 tcp 1040 ------- 1 0.0 4.0 10 25
- 4.200031 0 2 tcp 1040 ------- 1 0.0 4.0 10 25
4.20003  0  0  4  0  maxseq_ 10
+ 4.200031 0 2 tcp 1040 ------- 1 0.0 4.0 11 26
4.20003  0  0  4  0  maxseq_ 11
- 4.200033 0 2 tcp 1040 ------- 1 0.0 4.0 11 26
r 4.200039 2 0 ack 40 ------- 1 4.0 0.0 5 16
4.20004  0  0  4  0  ack_ 5
4.20004  0  0  4  0  cwnd_ 8.000 
+ 4.200039 0 2 tcp 1040 ------- 1 0.0 4.0 12 27
- 4.200039 0 2 tcp 1040 ------- 1 0.0 4.0 12 27
4.20004  0  0  4  0  maxseq_ 12
+ 4.200039 0 2 tcp 1040 ------- 1 0.0 4.0 13 28
4.20004  0  0  4  0  maxseq_ 13
- 4.200041 0 2 tcp 1040 ------- 1 0.0 4.0 13 28
r 4.65 3 5 tcp 40 ---A--- 2 1.0 5.0 0 12
+ 4.65 5 3 ack 40 ------- 2 5.0 1.0 1 29
- 4.65 5 3 ack 40 ------- 2 5.0 1.0 1 29
r 4.700016 0 2 tcp 1040 ------- 1 0.0 4.0 6 21
+ 4.700016 2 3 tcp 1040 ------- 1 0.0 4.0 6 21
- 4.700016 2 3 tcp 1040 ------- 1 0.0 4.0 6 21
r 4.700018 0 2 tcp 1040 ------- 1 0.0 4.0 7 22
+ 4.700018 2 3 tcp 1040 ------- 1 0.0 4.0 7 22
r 4.700024 0 2 tcp 1040 ------- 1 0.0 4.0 8 23
+ 4.700024 2 3 tcp 1040 ------- 1 0.0 4.0 8 23
- 4.700024 2 3 tcp 1040 ------- 1 0.0 4.0 7 22
r 4.700026 0 2 tcp 1040 ------- 1 0.0 4.0 9 24
+ 4.700026 2 3 tcp 1040 ------- 1 0.0 4.0 9 24
r 4.700033 0 2 tcp 1040 ------- 1 0.0 4.0 10 25
+ 4.700033 2 3 tcp 1040 ------- 1 0.0 4.0 10 25
- 4.700033 2 3 tcp 1040 ------- 1 0.0 4.0 8 23
r 4.700035 0 2 tcp 1040 ------- 1 0.0 4.0 11 26
+ 4.700035 2 3 tcp 1040 ------- 1 0.0 4.0 11 26
r 4.700041 0 2 tcp 1040 ------- 1 0.0 4.0 12 27
+ 4.700041 2 3 tcp 1040 ------- 1 0.0 4.0 12 27
- 4.700041 2 3 tcp 1040 ------- 1 0.0 4.0 9 24
r 4.700043 0 2 tcp 1040 ------- 1 0.0 4.0 13 28
+ 4.700043 2 3 tcp 1040 ------- 1 0.0 4.0 13 28
- 4.700049 2 3 tcp 1040 ------- 1 0.0 4.0 10 25
- 4.700058 2 3 tcp 1040 ------- 1 0.0 4.0 11 26
- 4.700066 2 3 tcp 1040 ------- 1 0.0 4.0 12 27
- 4.700074 2 3 tcp 1040 ------- 1 0.0 4.0 13 28
r 4.750024 2 3 tcp 1040 ------- 1 0.0 4.0 6 21
+ 4.750024 3 4 tcp 1040 ------- 1 0.0 4.0 6 21
- 4.750024 3 4 tcp 1040 ------- 1 0.0 4.0 6 21
r 4.750033 2 3 tcp 1040 ------- 1 0.0 4.0 7 22
+ 4.750033 3 4 tcp 1040 ------- 1 0.0 4.0 7 22
- 4.750033 3 4 tcp 1040 ------- 1 0.0 4.0 7 22
r 4.750041 2 3 tcp 1040 ------- 1 0.0 4.0 8 23
+ 4.750041 3 4 tcp 1040 ------- 1 0.0 4.0 8 23
- 4.750041 3 4 tcp 1040 ------- 1 0.0 4.0 8 23
r 4.750049 2 3 tcp 1040 ------- 1 0.0 4.0 9 24
+ 4.750049 3 4 tcp 1040 ------- 1 0.0 4.0 9 24
- 4.750049 3 4 tcp 1040 ------- 1 0.0 4.0 9 24
r 4.750058 2 3 tcp 1040 ------- 1 0.0 4.0 10 25
+ 4.750058 3 4 tcp 1040 ------- 1 0.0 4.0 10 25
- 4.750058 3 4 tcp 1040 ------- 1 0.0 4.0 10 25
r 4.750066 2 3 tcp 1040 ------- 1 0.0 4.0 11 26
+ 4.750066 3 4 tcp 1040 ------- 1 0.0 4.0 11 26
- 4.750066 3 4 tcp 1040 ------- 1 0.0 4.0 11 26
r 4.750074 2 3 tcp 1040 ------- 1 0.0 4.0 12 27
+ 4.750074 3 4 tcp 1040 ------- 1 0.0 4.0 12 27
- 4.750074 3 4 tcp 1040 ------- 1 0.0 4.0 12 27
r 4.750083 2 3 tcp 1040 ------- 1 0.0 4.0 13 28
+ 4.750083 3 4 tcp 1040 ------- 1 0.0 4.0 13 28
- 4.750083 3 4 tcp 1040 ------- 1 0.0 4.0 13 28
r 4.950013 3 5 tcp 1040 ------- 2 1.0 5.0 1 17
+ 4.950013 5 3 ack 40 ------- 2 5.0 1.0 1 30
- 4.950013 5 3 ack 40 ------- 2 5.0 1.0 1 30
r 4.950022 3 5 tcp 1040 ------- 2 1.0 5.0 2 18
+ 4.950022 5 3 ack 40 ------- 2 5.0 1.0 2 31
- 4.950022 5 3 ack 40 ------- 2 5.0 1.0 2 31
r 4.95003 3 5 tcp 1040 ------- 2 1.0 5.0 3 19
+ 4.95003 5 3 ack 40 ------- 2 5.0 1.0 3 32
- 4.95003 5 3 ack 40 ------- 2 5.0 1.0 3 32
r 4.950038 3 5 tcp 1040 ------- 2 1.0 5.0 4 20
+ 4.950038 5 3 ack 40 ------- 2 5.0 1.0 4 33
- 4.950038 5 3 ack 40 ------- 2 5.0 1.0 4 33
r 5.250026 3 4 tcp 1040 ------- 1 0.0 4.0 6 21
+ 5.250026 4 3 ack 40 ------- 1 4.0 0.0 6 34
- 5.250026 4 3 ack 40 ------- 1 4.0 0.0 6 34
r 5.250035 3 4 tcp 1040 ------- 1 0.0 4.0 7 22
+ 5.250035 4 3 ack 40 ------- 1 4.0 0.0 7 35
- 5.250035 4 3 ack 40 ------- 1 4.0 0.0 7 35
r 5.250043 3 4 tcp 1040 ------- 1 0.0 4.0 8 23
+ 5.250043 4 3 ack 40 ------- 1 4.0 0.0 8 36
- 5.250043 4 3 ack 40 ------- 1 4.0 0.0 8 36
r 5.250051 3 4 tcp 1040 ------- 1 0.0 4.0 9 24
+ 5.250051 4 3 ack 40 ------- 1 4.0 0.0 9 37
- 5.250051 4 3 ack 40 ------- 1 4.0 0.0 9 37
r 5.25006 3 4 tcp 1040 ------- 1 0.0 4.0 10 25
+ 5.25006 4 3 ack 40 ------- 1 4.0 0.0 10 38
- 5.25006 4 3 ack 40 ------- 1 4.0 0.0 10 38
r 5.250068 3 4 tcp 1040 ------- 1 0.0 4.0 11 26
+ 5.250068 4 3 ack 40 ------- 1 4.0 0.0 11 39
- 5.250068 4 3 ack 40 ------- 1 4.0 0.0 11 39
r 5.250076 3 4 tcp 1040 ------- 1 0.0 4.0 12 27
+ 5.250076 4 3 ack 40 ------- 1 4.0 0.0 12 40
- 5.250076 4 3 ack 40 ------- 1 4.0 0.0 12 40
r 5.250085 3 4 tcp 1040 ------- 1 0.0 4.0 13 28
+ 5.250085 4 3 ack 40 ------- 1 4.0 0.0 13 41
- 5.250085 4 3 ack 40 ------- 1 4.0 0.0 13 41
r 5.450001 5 3 ack 40 ------- 2 5.0 1.0 1 29
+ 5.450001 3 2 ack 40 ------- 2 5.0 1.0 1 29
- 5.450001 3 2 ack 40 ------- 2 5.0 1.0 1 29
r 5.500001 3 2 ack 40 ------- 2 5.0 1.0 1 29
+ 5.500001 2 1 ack 40 ------- 2 5.0 1.0 1 29
- 5.500001 2 1 ack 40 ------- 2 5.0 1.0 1 29
r 5.750014 5 3 ack 40 ------- 2 5.0 1.0 1 30
+ 5.750014 3 2 ack 40 ------- 2 5.0 1.0 1 30
- 5.750014 3 2 ack 40 ------- 2 5.0 1.0 1 30
r 5.750022 5 3 ack 40 ------- 2 5.0 1.0 2 31
+ 5.750022 3 2 ack 40 ------- 2 5.0 1.0 2 31
- 5.750022 3 2 ack 40 ------- 2 5.0 1.0 2 31
r 5.750026 4 3 ack 40 ------- 1 4.0 0.0 6 34
+ 5.750026 3 2 ack 40 ------- 1 4.0 0.0 6 34
- 5.750026 3 2 ack 40 ------- 1 4.0 0.0 6 34
r 5.75003 5 3 ack 40 ------- 2 5.0 1.0 3 32
+ 5.75003 3 2 ack 40 ------- 2 5.0 1.0 3 32
- 5.75003 3 2 ack 40 ------- 2 5.0 1.0 3 32
r 5.750035 4 3 ack 40 ------- 1 4.0 0.0 7 35
+ 5.750035 3 2 ack 40 ------- 1 4.0 0.0 7 35
- 5.750035 3 2 ack 40 ------- 1 4.0 0.0 7 35
r 5.750038 5 3 ack 40 ------- 2 5.0 1.0 4 33
+ 5.750038 3 2 ack 40 ------- 2 5.0 1.0 4 33
- 5.750038 3 2 ack 40 ------- 2 5.0 1.0 4 33
r 5.750043 4 3 ack 40 ------- 1 4.0 0.0 8 36
+ 5.750043 3 2 ack 40 ------- 1 4.0 0.0 8 36
- 5.750043 3 2 ack 40 ------- 1 4.0 0.0 8 36
r 5.750051 4 3 ack 40 ------- 1 4.0 0.0 9 37
+ 5.750051 3 2 ack 40 ------- 1 4.0 0.0 9 37
- 5.750051 3 2 ack 40 ------- 1 4.0 0.0 9 37
r 5.75006 4 3 ack 40 ------- 1 4.0 0.0 10 38
+ 5.75006 3 2 ack 40 ------- 1 4.0 0.0 10 38
- 5.75006 3 2 ack 40 ------- 1 4.0 0.0 10 38
r 5.750068 4 3 ack 40 ------- 1 4.0 0.0 11 39
+ 5.750068 3 2 ack 40 ------- 1 4.0 0.0 11 39
- 5.750068 3 2 ack 40 ------- 1 4.0 0.0 11 39
r 5.750076 4 3 ack 40 ------- 1 4.0 0.0 12 40
+ 5.750076 3 2 ack 40 ------- 1 4.0 0.0 12 40
- 5.750076 3 2 ack 40 ------- 1 4.0 0.0 12 40
r 5.750085 4 3 ack 40 ------- 1 4.0 0.0 13 41
+ 5.750085 3 2 ack 40 ------- 1 4.0 0.0 13 41
- 5.750085 3 2 ack 40 ------- 1 4.0 0.0 13 41
r 5.800014 3 2 ack 40 ------- 2 5.0 1.0 1 30
+ 5.800014 2 1 ack 40 ------- 2 5.0 1.0 1 30
- 5.800014 2 1 ack 40 ------- 2 5.0 1.0 1 30
r 5.800022 3 2 ack 40 ------- 2 5.0 1.0 2 31
+ 5.800022 2 1 ack 40 ------- 2 5.0 1.0 2 31
- 5.800022 2 1 ack 40 ------- 2 5.0 1.0 2 31
r 5.800027 3 2 ack 40 ------- 1 4.0 0.0 6 34
+ 5.800027 2 0 ack 40 ------- 1 4.0 0.0 6 34
- 5.800027 2 0 ack 40 ------- 1 4.0 0.0 6 34
r 5.80003 3 2 ack 40 ------- 2 5.0 1.0 3 32
+ 5.80003 2 1 ack 40 ------- 2 5.0 1.0 3 32
- 5.80003 2 1 ack 40 ------- 2 5.0 1.0 3 32
r 5.800035 3 2 ack 40 ------- 1 4.0 0.0 7 35
+ 5.800035 2 0 ack 40 ------- 1 4.0 0.0 7 35
- 5.800035 2 0 ack 40 ------- 1 4.0 0.0 7 35
r 5.800039 3 2 ack 40 ------- 2 5.0 1.0 4 33
+ 5.800039 2 1 ack 40 ------- 2 5.0 1.0 4 33
- 5.800039 2 1 ack 40 ------- 2 5.0 1.0 4 33
r 5.800043 3 2 ack 40 ------- 1 4.0 0.0 8 36
+ 5.800043 2 0 ack 40 ------- 1 4.0 0.0 8 36
- 5.800043 2 0 ack 40 ------- 1 4.0 0.0 8 36
r 5.800052 3 2 ack 40 ------- 1 4.0 0.0 9 37
+ 5.800052 2 0 ack 40 ------- 1 4.0 0.0 9 37
- 5.800052 2 0 ack 40 ------- 1 4.0 0.0 9 37
r 5.80006 3 2 ack 40 ------- 1 4.0 0.0 10 38
+ 5.80006 2 0 ack 40 ------- 1 4.0 0.0 10 38
- 5.80006 2 0 ack 40 ------- 1 4.0 0.0 10 38
r 5.800068 3 2 ack 40 ------- 1 4.0 0.0 11 39
+ 5.800068 2 0 ack 40 ------- 1 4.0 0.0 11 39
- 5.800068 2 0 ack 40 ------- 1 4.0 0.0 11 39
r 5.800077 3 2 ack 40 ------- 1 4.0 0.0 12 40
+ 5.800077 2 0 ack 40 ------- 1 4.0 0.0 12 40
- 5.800077 2 0 ack 40 ------- 1 4.0 0.0 12 40
r 5.800085 3 2 ack 40 ------- 1 4.0 0.0 13 41
+ 5.800085 2 0 ack 40 ------- 1 4.0 0.0 13 41
- 5.800085 2 0 ack 40 ------- 1 4.0 0.0 13 41
r 6.300001 2 1 ack 40 ------- 2 5.0 1.0 1 29
r 6.300027 2 0 ack 40 ------- 1 4.0 0.0 6 34
6.30003  0  0  4  0  ack_ 6
6.30003  0  0  4  0  cwnd_ 9.000 
+ 6.300027 0 2 tcp 1040 ------- 1 0.0 4.0 14 42
- 6.300027 0 2 tcp 1040 ------- 1 0.0 4.0 14 42
6.30003  0  0  4  0  maxseq_ 14
+ 6.300027 0 2 tcp 1040 ------- 1 0.0 4.0 15 43
6.30003  0  0  4  0  maxseq_ 15
- 6.300029 0 2 tcp 1040 ------- 1 0.0 4.0 15 43
r 6.300035 2 0 ack 40 ------- 1 4.0 0.0 7 35
6.30004  0  0  4  0  ack_ 7
6.30004  0  0  4  0  cwnd_ 10.000
+ 6.300035 0 2 tcp 1040 ------- 1 0.0 4.0 16 44
- 6.300035 0 2 tcp 1040 ------- 1 0.0 4.0 16 44
6.30004  0  0  4  0  maxseq_ 16
+ 6.300035 0 2 tcp 1040 ------- 1 0.0 4.0 17 45
6.30004  0  0  4  0  maxseq_ 17
- 6.300037 0 2 tcp 1040 ------- 1 0.0 4.0 17 45
r 6.300044 2 0 ack 40 ------- 1 4.0 0.0 8 36
6.30004  0  0  4  0  ack_ 8
6.30004  0  0  4  0  cwnd_ 11.000
+ 6.300044 0 2 tcp 1040 ------- 1 0.0 4.0 18 46
- 6.300044 0 2 tcp 1040 ------- 1 0.0 4.0 18 46
6.30004  0  0  4  0  maxseq_ 18
+ 6.300044 0 2 tcp 1040 ------- 1 0.0 4.0 19 47
6.30004  0  0  4  0  maxseq_ 19
- 6.300046 0 2 tcp 1040 ------- 1 0.0 4.0 19 47
r 6.300052 2 0 ack 40 ------- 1 4.0 0.0 9 37
6.30005  0  0  4  0  ack_ 9
6.30005  0  0  4  0  cwnd_ 12.000
+ 6.300052 0 2 tcp 1040 ------- 1 0.0 4.0 20 48
- 6.300052 0 2 tcp 1040 ------- 1 0.0 4.0 20 48
6.30005  0  0  4  0  maxseq_ 20
+ 6.300052 0 2 tcp 1040 ------- 1 0.0 4.0 21 49
6.30005  0  0  4  0  maxseq_ 21
- 6.300054 0 2 tcp 1040 ------- 1 0.0 4.0 21 49
r 6.30006 2 0 ack 40 ------- 1 4.0 0.0 10 38
6.30006  0  0  4  0  ack_ 10
6.30006  0  0  4  0  cwnd_ 13.000
+ 6.30006 0 2 tcp 1040 ------- 1 0.0 4.0 22 50
- 6.30006 0 2 tcp 1040 ------- 1 0.0 4.0 22 50
6.30006  0  0  4  0  maxseq_ 22
+ 6.30006 0 2 tcp 1040 ------- 1 0.0 4.0 23 51
6.30006  0  0  4  0  maxseq_ 23
- 6.300062 0 2 tcp 1040 ------- 1 0.0 4.0 23 51
r 6.300068 2 0 ack 40 ------- 1 4.0 0.0 11 39
6.30007  0  0  4  0  ack_ 11
6.30007  0  0  4  0  cwnd_ 14.000
+ 6.300068 0 2 tcp 1040 ------- 1 0.0 4.0 24 52
- 6.300068 0 2 tcp 1040 ------- 1 0.0 4.0 24 52
6.30007  0  0  4  0  maxseq_ 24
+ 6.300068 0 2 tcp 1040 ------- 1 0.0 4.0 25 53
6.30007  0  0  4  0  maxseq_ 25
- 6.300071 0 2 tcp 1040 ------- 1 0.0 4.0 25 53
r 6.300077 2 0 ack 40 ------- 1 4.0 0.0 12 40
6.30008  0  0  4  0  ack_ 12
6.30008  0  0  4  0  cwnd_ 15.000
+ 6.300077 0 2 tcp 1040 ------- 1 0.0 4.0 26 54
- 6.300077 0 2 tcp 1040 ------- 1 0.0 4.0 26 54
6.30008  0  0  4  0  maxseq_ 26
+ 6.300077 0 2 tcp 1040 ------- 1 0.0 4.0 27 55
6.30008  0  0  4  0  maxseq_ 27
- 6.300079 0 2 tcp 1040 ------- 1 0.0 4.0 27 55
r 6.300085 2 0 ack 40 ------- 1 4.0 0.0 13 41
6.30009  0  0  4  0  ack_ 13
6.30009  0  0  4  0  cwnd_ 16.000
+ 6.300085 0 2 tcp 1040 ------- 1 0.0 4.0 28 56
- 6.300085 0 2 tcp 1040 ------- 1 0.0 4.0 28 56
6.30009  0  0  4  0  maxseq_ 28
+ 6.300085 0 2 tcp 1040 ------- 1 0.0 4.0 29 57
6.30009  0  0  4  0  maxseq_ 29
- 6.300087 0 2 tcp 1040 ------- 1 0.0 4.0 29 57
r 6.600014 2 1 ack 40 ------- 2 5.0 1.0 1 30
r 6.600022 2 1 ack 40 ------- 2 5.0 1.0 2 31
6.60002  1  0  5  0  ack_ 2
6.60002  1  0  5  0  rtt_ 3.300 
+ 6.600022 1 2 tcp 1040 ------- 2 1.0 5.0 5 58
- 6.600022 1 2 tcp 1040 ------- 2 1.0 5.0 5 58
6.60002  1  0  5  0  maxseq_ 5
r 6.600031 2 1 ack 40 ------- 2 5.0 1.0 3 32
6.60003  1  0  5  0  ack_ 3
+ 6.600031 1 2 tcp 1040 ------- 2 1.0 5.0 6 59
- 6.600031 1 2 tcp 1040 ------- 2 1.0 5.0 6 59
6.60003  1  0  5  0  maxseq_ 6
r 6.600039 2 1 ack 40 ------- 2 5.0 1.0 4 33
6.60004  1  0  5  0  ack_ 4
+ 6.600039 1 2 tcp 1040 ------- 2 1.0 5.0 7 60
- 6.600039 1 2 tcp 1040 ------- 2 1.0 5.0 7 60
6.60004  1  0  5  0  maxseq_ 7
r 6.800029 0 2 tcp 1040 ------- 1 0.0 4.0 14 42
+ 6.800029 2 3 tcp 1040 ------- 1 0.0 4.0 14 42
- 6.800029 2 3 tcp 1040 ------- 1 0.0 4.0 14 42
r 6.800031 0 2 tcp 1040 ------- 1 0.0 4.0 15 43
+ 6.800031 2 3 tcp 1040 ------- 1 0.0 4.0 15 43
- 6.800037 2 3 tcp 1040 ------- 1 0.0 4.0 15 43
r 6.800037 0 2 tcp 1040 ------- 1 0.0 4.0 16 44
+ 6.800037 2 3 tcp 1040 ------- 1 0.0 4.0 16 44
r 6.800039 0 2 tcp 1040 ------- 1 0.0 4.0 17 45
+ 6.800039 2 3 tcp 1040 ------- 1 0.0 4.0 17 45
r 6.800046 0 2 tcp 1040 ------- 1 0.0 4.0 18 46
+ 6.800046 2 3 tcp 1040 ------- 1 0.0 4.0 18 46
- 6.800046 2 3 tcp 1040 ------- 1 0.0 4.0 16 44
r 6.800048 0 2 tcp 1040 ------- 1 0.0 4.0 19 47
+ 6.800048 2 3 tcp 1040 ------- 1 0.0 4.0 19 47
- 6.800054 2 3 tcp 1040 ------- 1 0.0 4.0 17 45
r 6.800054 0 2 tcp 1040 ------- 1 0.0 4.0 20 48
+ 6.800054 2 3 tcp 1040 ------- 1 0.0 4.0 20 48
r 6.800056 0 2 tcp 1040 ------- 1 0.0 4.0 21 49
+ 6.800056 2 3 tcp 1040 ------- 1 0.0 4.0 21 49
r 6.800062 0 2 tcp 1040 ------- 1 0.0 4.0 22 50
+ 6.800062 2 3 tcp 1040 ------- 1 0.0 4.0 22 50
- 6.800062 2 3 tcp 1040 ------- 1 0.0 4.0 18 46
r 6.800064 0 2 tcp 1040 ------- 1 0.0 4.0 23 51
+ 6.800064 2 3 tcp 1040 ------- 1 0.0 4.0 23 51
- 6.800071 2 3 tcp 1040 ------- 1 0.0 4.0 19 47
r 6.800071 0 2 tcp 1040 ------- 1 0.0 4.0 24 52
+ 6.800071 2 3 tcp 1040 ------- 1 0.0 4.0 24 52
r 6.800073 0 2 tcp 1040 ------- 1 0.0 4.0 25 53
+ 6.800073 2 3 tcp 1040 ------- 1 0.0 4.0 25 53
r 6.800079 0 2 tcp 1040 ------- 1 0.0 4.0 26 54
+ 6.800079 2 3 tcp 1040 ------- 1 0.0 4.0 26 54
- 6.800079 2 3 tcp 1040 ------- 1 0.0 4.0 20 48
r 6.800081 0 2 tcp 1040 ------- 1 0.0 4.0 27 55
+ 6.800081 2 3 tcp 1040 ------- 1 0.0 4.0 27 55
- 6.800087 2 3 tcp 1040 ------- 1 0.0 4.0 21 49
r 6.800087 0 2 tcp 1040 ------- 1 0.0 4.0 28 56
+ 6.800087 2 3 tcp 1040 ------- 1 0.0 4.0 28 56
r 6.800089 0 2 tcp 1040 ------- 1 0.0 4.0 29 57
+ 6.800089 2 3 tcp 1040 ------- 1 0.0 4.0 29 57
- 6.800096 2 3 tcp 1040 ------- 1 0.0 4.0 22 50
- 6.800104 2 3 tcp 1040 ------- 1 0.0 4.0 23 51
- 6.800112 2 3 tcp 1040 ------- 1 0.0 4.0 24 52
- 6.80012 2 3 tcp 1040 ------- 1 0.0 4.0 25 53
- 6.800129 2 3 tcp 1040 ------- 1 0.0 4.0 26 54
- 6.800137 2 3 tcp 1040 ------- 1 0.0 4.0 27 55
- 6.800145 2 3 tcp 1040 ------- 1 0.0 4.0 28 56
- 6.800154 2 3 tcp 1040 ------- 1 0.0 4.0 29 57
r 6.850037 2 3 tcp 1040 ------- 1 0.0 4.0 14 42
+ 6.850037 3 4 tcp 1040 ------- 1 0.0 4.0 14 42
- 6.850037 3 4 tcp 1040 ------- 1 0.0 4.0 14 42
r 6.850046 2 3 tcp 1040 ------- 1 0.0 4.0 15 43
+ 6.850046 3 4 tcp 1040 ------- 1 0.0 4.0 15 43
- 6.850046 3 4 tcp 1040 ------- 1 0.0 4.0 15 43
r 6.850054 2 3 tcp 1040 ------- 1 0.0 4.0 16 44
+ 6.850054 3 4 tcp 1040 ------- 1 0.0 4.0 16 44
- 6.850054 3 4 tcp 1040 ------- 1 0.0 4.0 16 44
r 6.850062 2 3 tcp 1040 ------- 1 0.0 4.0 17 45
+ 6.850062 3 4 tcp 1040 ------- 1 0.0 4.0 17 45
- 6.850062 3 4 tcp 1040 ------- 1 0.0 4.0 17 45
r 6.850071 2 3 tcp 1040 ------- 1 0.0 4.0 18 46
+ 6.850071 3 4 tcp 1040 ------- 1 0.0 4.0 18 46
- 6.850071 3 4 tcp 1040 ------- 1 0.0 4.0 18 46
r 6.850079 2 3 tcp 1040 ------- 1 0.0 4.0 19 47
+ 6.850079 3 4 tcp 1040 ------- 1 0.0 4.0 19 47
- 6.850079 3 4 tcp 1040 ------- 1 0.0 4.0 19 47
r 6.850087 2 3 tcp 1040 ------- 1 0.0 4.0 20 48
+ 6.850087 3 4 tcp 1040 ------- 1 0.0 4.0 20 48
- 6.850087 3 4 tcp 1040 ------- 1 0.0 4.0 20 48
r 6.850096 2 3 tcp 1040 ------- 1 0.0 4.0 21 49
+ 6.850096 3 4 tcp 1040 ------- 1 0.0 4.0 21 49
- 6.850096 3 4 tcp 1040 ------- 1 0.0 4.0 21 49
r 6.850104 2 3 tcp 1040 ------- 1 0.0 4.0 22 50
+ 6.850104 3 4 tcp 1040 ------- 1 0.0 4.0 22 50
- 6.850104 3 4 tcp 1040 ------- 1 0.0 4.0 22 50
r 6.850112 2 3 tcp 1040 ------- 1 0.0 4.0 23 51
+ 6.850112 3 4 tcp 1040 ------- 1 0.0 4.0 23 51
- 6.850112 3 4 tcp 1040 ------- 1 0.0 4.0 23 51
r 6.85012 2 3 tcp 1040 ------- 1 0.0 4.0 24 52
+ 6.85012 3 4 tcp 1040 ------- 1 0.0 4.0 24 52
- 6.85012 3 4 tcp 1040 ------- 1 0.0 4.0 24 52
r 6.850129 2 3 tcp 1040 ------- 1 0.0 4.0 25 53
+ 6.850129 3 4 tcp 1040 ------- 1 0.0 4.0 25 53
- 6.850129 3 4 tcp 1040 ------- 1 0.0 4.0 25 53
r 6.850137 2 3 tcp 1040 ------- 1 0.0 4.0 26 54
+ 6.850137 3 4 tcp 1040 ------- 1 0.0 4.0 26 54
- 6.850137 3 4 tcp 1040 ------- 1 0.0 4.0 26 54
r 6.850145 2 3 tcp 1040 ------- 1 0.0 4.0 27 55
+ 6.850145 3 4 tcp 1040 ------- 1 0.0 4.0 27 55
- 6.850145 3 4 tcp 1040 ------- 1 0.0 4.0 27 55
r 6.850154 2 3 tcp 1040 ------- 1 0.0 4.0 28 56
+ 6.850154 3 4 tcp 1040 ------- 1 0.0 4.0 28 56
- 6.850154 3 4 tcp 1040 ------- 1 0.0 4.0 28 56
r 6.850162 2 3 tcp 1040 ------- 1 0.0 4.0 29 57
+ 6.850162 3 4 tcp 1040 ------- 1 0.0 4.0 29 57
- 6.850162 3 4 tcp 1040 ------- 1 0.0 4.0 29 57
r 7.350039 3 4 tcp 1040 ------- 1 0.0 4.0 14 42
+ 7.350039 4 3 ack 40 ------- 1 4.0 0.0 14 61
- 7.350039 4 3 ack 40 ------- 1 4.0 0.0 14 61
r 7.350048 3 4 tcp 1040 ------- 1 0.0 4.0 15 43
+ 7.350048 4 3 ack 40 ------- 1 4.0 0.0 15 62
- 7.350048 4 3 ack 40 ------- 1 4.0 0.0 15 62
r 7.350056 3 4 tcp 1040 ------- 1 0.0 4.0 16 44
+ 7.350056 4 3 ack 40 ------- 1 4.0 0.0 16 63
- 7.350056 4 3 ack 40 ------- 1 4.0 0.0 16 63
r 7.350064 3 4 tcp 1040 ------- 1 0.0 4.0 17 45
+ 7.350064 4 3 ack 40 ------- 1 4.0 0.0 17 64
- 7.350064 4 3 ack 40 ------- 1 4.0 0.0 17 64
r 7.350073 3 4 tcp 1040 ------- 1 0.0 4.0 18 46
+ 7.350073 4 3 ack 40 ------- 1 4.0 0.0 18 65
- 7.350073 4 3 ack 40 ------- 1 4.0 0.0 18 65
r 7.350081 3 4 tcp 1040 ------- 1 0.0 4.0 19 47
+ 7.350081 4 3 ack 40 ------- 1 4.0 0.0 19 66
- 7.350081 4 3 ack 40 ------- 1 4.0 0.0 19 66
r 7.350089 3 4 tcp 1040 ------- 1 0.0 4.0 20 48
+ 7.350089 4 3 ack 40 ------- 1 4.0 0.0 20 67
- 7.350089 4 3 ack 40 ------- 1 4.0 0.0 20 67
r 7.350098 3 4 tcp 1040 ------- 1 0.0 4.0 21 49
+ 7.350098 4 3 ack 40 ------- 1 4.0 0.0 21 68
- 7.350098 4 3 ack 40 ------- 1 4.0 0.0 21 68
r 7.350106 3 4 tcp 1040 ------- 1 0.0 4.0 22 50
+ 7.350106 4 3 ack 40 ------- 1 4.0 0.0 22 69
- 7.350106 4 3 ack 40 ------- 1 4.0 0.0 22 69
r 7.350114 3 4 tcp 1040 ------- 1 0.0 4.0 23 51
+ 7.350114 4 3 ack 40 ------- 1 4.0 0.0 23 70
- 7.350114 4 3 ack 40 ------- 1 4.0 0.0 23 70
r 7.350123 3 4 tcp 1040 ------- 1 0.0 4.0 24 52
+ 7.350123 4 3 ack 40 ------- 1 4.0 0.0 24 71
- 7.350123 4 3 ack 40 ------- 1 4.0 0.0 24 71
r 7.350131 3 4 tcp 1040 ------- 1 0.0 4.0 25 53
+ 7.350131 4 3 ack 40 ------- 1 4.0 0.0 25 72
- 7.350131 4 3 ack 40 ------- 1 4.0 0.0 25 72
r 7.350139 3 4 tcp 1040 ------- 1 0.0 4.0 26 54
+ 7.350139 4 3 ack 40 ------- 1 4.0 0.0 26 73
- 7.350139 4 3 ack 40 ------- 1 4.0 0.0 26 73
r 7.350148 3 4 tcp 1040 ------- 1 0.0 4.0 27 55
+ 7.350148 4 3 ack 40 ------- 1 4.0 0.0 27 74
- 7.350148 4 3 ack 40 ------- 1 4.0 0.0 27 74
r 7.350156 3 4 tcp 1040 ------- 1 0.0 4.0 28 56
+ 7.350156 4 3 ack 40 ------- 1 4.0 0.0 28 75
- 7.350156 4 3 ack 40 ------- 1 4.0 0.0 28 75
r 7.350164 3 4 tcp 1040 ------- 1 0.0 4.0 29 57
+ 7.350164 4 3 ack 40 ------- 1 4.0 0.0 29 76
- 7.350164 4 3 ack 40 ------- 1 4.0 0.0 29 76
r 7.400024 1 2 tcp 1040 ------- 2 1.0 5.0 5 58
+ 7.400024 2 3 tcp 1040 ------- 2 1.0 5.0 5 58
- 7.400024 2 3 tcp 1040 ------- 2 1.0 5.0 5 58
r 7.400033 1 2 tcp 1040 ------- 2 1.0 5.0 6 59
+ 7.400033 2 3 tcp 1040 ------- 2 1.0 5.0 6 59
- 7.400033 2 3 tcp 1040 ------- 2 1.0 5.0 6 59
r 7.400041 1 2 tcp 1040 ------- 2 1.0 5.0 7 60
+ 7.400041 2 3 tcp 1040 ------- 2 1.0 5.0 7 60
- 7.400041 2 3 tcp 1040 ------- 2 1.0 5.0 7 60
r 7.450033 2 3 tcp 1040 ------- 2 1.0 5.0 5 58
+ 7.450033 3 5 tcp 1040 ------- 2 1.0 5.0 5 58
- 7.450033 3 5 tcp 1040 ------- 2 1.0 5.0 5 58
r 7.450041 2 3 tcp 1040 ------- 2 1.0 5.0 6 59
+ 7.450041 3 5 tcp 1040 ------- 2 1.0 5.0 6 59
- 7.450041 3 5 tcp 1040 ------- 2 1.0 5.0 6 59
r 7.450049 2 3 tcp 1040 ------- 2 1.0 5.0 7 60
+ 7.450049 3 5 tcp 1040 ------- 2 1.0 5.0 7 60
- 7.450049 3 5 tcp 1040 ------- 2 1.0 5.0 7 60
r 7.850039 4 3 ack 40 ------- 1 4.0 0.0 14 61
+ 7.850039 3 2 ack 40 ------- 1 4.0 0.0 14 61
- 7.850039 3 2 ack 40 ------- 1 4.0 0.0 14 61
r 7.850048 4 3 ack 40 ------- 1 4.0 0.0 15 62
+ 7.850048 3 2 ack 40 ------- 1 4.0 0.0 15 62
- 7.850048 3 2 ack 40 ------- 1 4.0 0.0 15 62
r 7.850056 4 3 ack 40 ------- 1 4.0 0.0 16 63
+ 7.850056 3 2 ack 40 ------- 1 4.0 0.0 16 63
- 7.850056 3 2 ack 40 ------- 1 4.0 0.0 16 63
r 7.850064 4 3 ack 40 ------- 1 4.0 0.0 17 64
+ 7.850064 3 2 ack 40 ------- 1 4.0 0.0 17 64
- 7.850064 3 2 ack 40 ------- 1 4.0 0.0 17 64
r 7.850073 4 3 ack 40 ------- 1 4.0 0.0 18 65