0.00000  0  0  4  0  cwnd_ 2.000 
0.00000  0  0  4  0  ssthresh_ 20
0.00000  0  0  4  0  ack_ -1
0.00000  0  0  4  0  maxseq_ -1
0.00000  0  0  4  0  rtt_ 0.000 
0.00000  1  0  5  0  cwnd_ 2.000 
0.00000  1  0  5  0  ssthresh_ 20
0.00000  1  0  5  0  ack_ -1
0.00000  1  0  5  0  maxseq_ -1
0.00000  1  0  5  0  rtt_ 0.000 
0.00000  0  0  4  0  ssthresh_ 755
0.00000  1  0  5  0  ssthresh_ 855
+ 0.6 0 2 tcp 40 ------- 1 0.0 4.0 0 0
- 0.6 0 2 tcp 40 ------- 1 0.0 4.0 0 0
0.60000  0  0  4  0  maxseq_ 0
+ 0.6 0 2 tcp 1040 ------- 1 0.0 4.0 1 1
0.60000  0  0  4  0  maxseq_ 1
+ 0.6 1 2 tcp 40 ------- 2 1.0 5.0 0 2
- 0.6 1 2 tcp 40 ------- 2 1.0 5.0 0 2
0.60000  1  0  5  0  maxseq_ 0
+ 0.6 1 2 tcp 1040 ------- 2 1.0 5.0 1 3
0.60000  1  0  5  0  maxseq_ 1
- 0.6 0 2 tcp 1040 ------- 1 0.0 4.0 1 1
- 0.6 1 2 tcp 1040 ------- 2 1.0 5.0 1 3
r 1.1 0 2 tcp 40 ------- 1 0.0 4.0 0 0
+ 1.1 2 3 tcp 40 ------- 1 0.0 4.0 0 0
- 1.1 2 3 tcp 40 ------- 1 0.0 4.0 0 0
r 1.100002 0 2 tcp 1040 ------- 1 0.0 4.0 1 1
+ 1.100002 2 3 tcp 1040 ------- 1 0.0 4.0 1 1
- 1.100002 2 3 tcp 1040 ------- 1 0.0 4.0 1 1
r 1.145 2 3 tcp 40 ------- 1 0.0 4.0 0 0
+ 1.145 3 4 tcp 40 ------- 1 0.0 4.0 0 0
- 1.145 3 4 tcp 40 ------- 1 0.0 4.0 0 0
r 1.14501 2 3 tcp 1040 ------- 1 0.0 4.0 1 1
+ 1.14501 3 4 tcp 1040 ------- 1 0.0 4.0 1 1
- 1.14501 3 4 tcp 1040 ------- 1 0.0 4.0 1 1
r 1.4 1 2 tcp 40 ------- 2 1.0 5.0 0 2
+ 1.4 2 3 tcp 40 ------- 2 1.0 5.0 0 2
- 1.4 2 3 tcp 40 ------- 2 1.0 5.0 0 2
r 1.400002 1 2 tcp 1040 ------- 2 1.0 5.0 1 3
+ 1.400002 2 3 tcp 1040 ------- 2 1.0 5.0 1 3
- 1.400002 2 3 tcp 1040 ------- 2 1.0 5.0 1 3
r 1.445 2 3 tcp 40 ------- 2 1.0 5.0 0 2
+ 1.445 3 5 tcp 40 ------- 2 1.0 5.0 0 2
- 1.445 3 5 tcp 40 ------- 2 1.0 5.0 0 2
r 1.44501 2 3 tcp 1040 ------- 2 1.0 5.0 1 3
+ 1.44501 3 5 tcp 1040 ------- 2 1.0 5.0 1 3
- 1.44501 3 5 tcp 1040 ------- 2 1.0 5.0 1 3
r 1.645 3 4 tcp 40 ------- 1 0.0 4.0 0 0
+ 1.645 4 3 ack 40 ------- 1 4.0 0.0 0 4
- 1.645 4 3 ack 40 ------- 1 4.0 0.0 0 4
r 1.645013 3 4 tcp 1040 ------- 1 0.0 4.0 1 1
+ 1.645013 4 3 ack 40 ------- 1 4.0 0.0 1 5
- 1.645013 4 3 ack 40 ------- 1 4.0 0.0 1 5
r 2.145001 4 3 ack 40 ------- 1 4.0 0.0 0 4
+ 2.145001 3 2 ack 40 ------- 1 4.0 0.0 0 4
- 2.145001 3 2 ack 40 ------- 1 4.0 0.0 0 4
r 2.145013 4 3 ack 40 ------- 1 4.0 0.0 1 5
+ 2.145013 3 2 ack 40 ------- 1 4.0 0.0 1 5
- 2.145013 3 2 ack 40 ------- 1 4.0 0.0 1 5
r 2.190001 3 2 ack 40 ------- 1 4.0 0.0 0 4
+ 2.190001 2 0 ack 40 ------- 1 4.0 0.0 0 4
- 2.190001 2 0 ack 40 ------- 1 4.0 0.0 0 4
r 2.190013 3 2 ack 40 ------- 1 4.0 0.0 1 5
+ 2.190013 2 0 ack 40 ------- 1 4.0 0.0 1 5
- 2.190013 2 0 ack 40 ------- 1 4.0 0.0 1 5
r 2.245 3 5 tcp 40 ------- 2 1.0 5.0 0 2
+ 2.245 5 3 ack 40 ------- 2 5.0 1.0 0 6
- 2.245 5 3 ack 40 ------- 2 5.0 1.0 0 6
r 2.245013 3 5 tcp 1040 ------- 2 1.0 5.0 1 3
+ 2.245013 5 3 ack 40 ------- 2 5.0 1.0 1 7
- 2.245013 5 3 ack 40 ------- 2 5.0 1.0 1 7
r 2.690001 2 0 ack 40 ------- 1 4.0 0.0 0 4
2.69000  0  0  4  0  ack_ 0
2.69000  0  0  4  0  rtt_ 2.090 
2.69000  0  0  4  0  cwnd_ 3.000 
+ 2.690001 0 2 tcp 1040 ------- 1 0.0 4.0 2 8
- 2.690001 0 2 tcp 1040 ------- 1 0.0 4.0 2 8
2.69000  0  0  4  0  maxseq_ 2
+ 2.690001 0 2 tcp 1040 ------- 1 0.0 4.0 3 9
2.69000  0  0  4  0  maxseq_ 3
- 2.690003 0 2 tcp 1040 ------- 1 0.0 4.0 3 9
r 2.690013 2 0 ack 40 ------- 1 4.0 0.0 1 5
2.69001  0  0  4  0  ack_ 1
2.69001  0  0  4  0  cwnd_ 4.000 
+ 2.690013 0 2 tcp 1040 ------- 1 0.0 4.0 4 10
- 2.690013 0 2 tcp 1040 ------- 1 0.0 4.0 4 10
2.69001  0  0  4  0  maxseq_ 4
+ 2.690013 0 2 tcp 1040 ------- 1 0.0 4.0 5 11
2.69001  0  0  4  0  maxseq_ 5
- 2.690015 0 2 tcp 1040 ------- 1 0.0 4.0 5 11
r 3.045001 5 3 ack 40 ------- 2 5.0 1.0 0 6
+ 3.045001 3 2 ack 40 ------- 2 5.0 1.0 0 6
- 3.045001 3 2 ack 40 ------- 2 5.0 1.0 0 6
r 3.045013 5 3 ack 40 ------- 2 5.0 1.0 1 7
+ 3.045013 3 2 ack 40 ------- 2 5.0 1.0 1 7
- 3.045013 3 2 ack 40 ------- 2 5.0 1.0 1 7
r 3.090001 3 2 ack 40 ------- 2 5.0 1.0 0 6
+ 3.090001 2 1 ack 40 ------- 2 5.0 1.0 0 6
- 3.090001 2 1 ack 40 ------- 2 5.0 1.0 0 6
r 3.090013 3 2 ack 40 ------- 2 5.0 1.0 1 7
+ 3.090013 2 1 ack 40 ------- 2 5.0 1.0 1 7
- 3.090013 2 1 ack 40 ------- 2 5.0 1.0 1 7
r 3.190003 0 2 tcp 1040 ------- 1 0.0 4.0 2 8
+ 3.190003 2 3 tcp 1040 ------- 1 0.0 4.0 2 8
- 3.190003 2 3 tcp 1040 ------- 1 0.0 4.0 2 8
r 3.190005 0 2 tcp 1040 ------- 1 0.0 4.0 3 9
+ 3.190005 2 3 tcp 1040 ------- 1 0.0 4.0 3 9
- 3.190011 2 3 tcp 1040 ------- 1 0.0 4.0 3 9
r 3.190015 0 2 tcp 1040 ------- 1 0.0 4.0 4 10
+ 3.190015 2 3 tcp 1040 ------- 1 0.0 4.0 4 10
r 3.190017 0 2 tcp 1040 ------- 1 0.0 4.0 5 11
+ 3.190017 2 3 tcp 1040 ------- 1 0.0 4.0 5 11
- 3.19002 2 3 tcp 1040 ------- 1 0.0 4.0 4 10
- 3.190028 2 3 tcp 1040 ------- 1 0.0 4.0 5 11
r 3.235011 2 3 tcp 1040 ------- 1 0.0 4.0 2 8
+ 3.235011 3 4 tcp 1040 ------- 1 0.0 4.0 2 8
- 3.235011 3 4 tcp 1040 ------- 1 0.0 4.0 2 8
r 3.23502 2 3 tcp 1040 ------- 1 0.0 4.0 3 9
+ 3.23502 3 4 tcp 1040 ------- 1 0.0 4.0 3 9
- 3.23502 3 4 tcp 1040 ------- 1 0.0 4.0 3 9
r 3.235028 2 3 tcp 1040 ------- 1 0.0 4.0 4 10
+ 3.235028 3 4 tcp 1040 ------- 1 0.0 4.0 4 10
- 3.235028 3 4 tcp 1040 ------- 1 0.0 4.0 4 10
r 3.235036 2 3 tcp 1040 ------- 1 0.0 4.0 5 11
+ 3.235036 3 4 tcp 1040 ------- 1 0.0 4.0 5 11
- 3.235036 3 4 tcp 1040 ------- 1 0.0 4.0 5 11
3.60000  1  0  5  0  cwnd_ 1.000 
3.60000  1  0  5  0  ssthresh_ 2
+ 3.6 1 2 tcp 40 ---A--- 2 1.0 5.0 0 12
- 3.6 1 2 tcp 40 ---A--- 2 1.0 5.0 0 12
r 3.735013 3 4 tcp 1040 ------- 1 0.0 4.0 2 8
+ 3.735013 4 3 ack 40 ------- 1 4.0 0.0 2 13
- 3.735013 4 3 ack 40 ------- 1 4.0 0.0 2 13
r 3.735022 3 4 tcp 1040 ------- 1 0.0 4.0 3 9
+ 3.735022 4 3 ack 40 ------- 1 4.0 0.0 3 14
- 3.735022 4 3 ack 40 ------- 1 4.0 0.0 3 14
r 3.73503 3 4 tcp 1040 ------- 1 0.0 4.0 4 10
+ 3.73503 4 3 ack 40 ------- 1 4.0 0.0 4 15
- 3.73503 4 3 ack 40 ------- 1 4.0 0.0 4 15
r 3.735038 3 4 tcp 1040 ------- 1 0.0 4.0 5 11
+ 3.735038 4 3 ack 40 ------- 1 4.0 0.0 5 16
- 3.735038 4 3 ack 40 ------- 1 4.0 0.0 5 16
r 3.890001 2 1 ack 40 ------- 2 5.0 1.0 0 6
3.89000  1  0  5  0  ack_ 0
3.89000  1  0  5  0  cwnd_ 2.000 
+ 3.890001 1 2 tcp 1040 ------- 2 1.0 5.0 1 17
- 3.890001 1 2 tcp 1040 ------- 2 1.0 5.0 1 17
+ 3.890001 1 2 tcp 1040 ------- 2 1.0 5.0 2 18
3.89000  1  0  5  0  maxseq_ 2
- 3.890003 1 2 tcp 1040 ------- 2 1.0 5.0 2 18
r 3.890013 2 1 ack 40 ------- 2 5.0 1.0 1 7
3.89001  1  0  5  0  ack_ 1
3.89001  1  0  5  0  cwnd_ 3.000 
+ 3.890013 1 2 tcp 1040 ------- 2 1.0 5.0 3 19
- 3.890013 1 2 tcp 1040 ------- 2 1.0 5.0 3 19
3.89001  1  0  5  0  maxseq_ 3
+ 3.890013 1 2 tcp 1040 ------- 2 1.0 5.0 4 20
3.89001  1  0  5  0  maxseq_ 4
- 3.890015 1 2 tcp 1040 ------- 2 1.0 5.0 4 20
r 4.235014 4 3 ack 40 ------- 1 4.0 0.0 2 13
+ 4.235014 3 2 ack 40 ------- 1 4.0 0.0 2 13
- 4.235014 3 2 ack 40 ------- 1 4.0 0.0 2 13
r 4.235022 4 3 ack 40 ------- 1 4.0 0.0 3 14
+ 4.235022 3 2 ack 40 ------- 1 4.0 0.0 3 14
- 4.235022 3 2 ack 40 ------- 1 4.0 0.0 3 14
r 4.23503 4 3 ack 40 ------- 1 4.0 0.0 4 15
+ 4.23503 3 2 ack 40 ------- 1 4.0 0.0 4 15
- 4.23503 3 2 ack 40 ------- 1 4.0 0.0 4 15
r 4.235038 4 3 ack 40 ------- 1 4.0 0.0 5 16
+ 4.235038 3 2 ack 40 ------- 1 4.0 0.0 5 16
- 4.235038 3 2 ack 40 ------- 1 4.0 0.0 5 16
r 4.280014 3 2 ack 40 ------- 1 4.0 0.0 2 13
+ 4.280014 2 0 ack 40 ------- 1 4.0 0.0 2 13
- 4.280014 2 0 ack 40 ------- 1 4.0 0.0 2 13
r 4.280022 3 2 ack 40 ------- 1 4.0 0.0 3 14
+ 4.280022 2 0 ack 40 ------- 1 4.0 0.0 3 14
- 4.280022 2 0 ack 40 ------- 1 4.0 0.0 3 14
r 4.28003 3 2 ack 40 ------- 1 4.0 0.0 4 15
+ 4.28003 2 0 ack 40 ------- 1 4.0 0.0 4 15
- 4.28003 2 0 ack 40 ------- 1 4.0 0.0 4 15
r 4.280039 3 2 ack 40 ------- 1 4.0 0.0 5 16
+ 4.280039 2 0 ack 40 ------- 1 4.0 0.0 5 16
- 4.280039 2 0 ack 40 ------- 1 4.0 0.0 5 16
r 4.4 1 2 tcp 40 ---A--- 2 1.0 5.0 0 12
+ 4.4 2 3 tcp 40 ---A--- 2 1.0 5.0 0 12
- 4.4 2 3 tcp 40 ---A--- 2 1.0 5.0 0 12
r 4.445 2 3 tcp 40 ---A--- 2 1.0 5.0 0 12
+ 4.445 3 5 tcp 40 ---A--- 2 1.0 5.0 0 12
- 4.445 3 5 tcp 40 ---A--- 2 1.0 5.0 0 12
r 4.690003 1 2 tcp 1040 ------- 2 1.0 5.0 1 17
+ 4.690003 2 3 tcp 1040 ------- 2 1.0 5.0 1 17
- 4.690003 2 3 tcp 1040 ------- 2 1.0 5.0 1 17
r 4.690005 1 2 tcp 1040 ------- 2 1.0 5.0 2 18
+ 4.690005 2 3 tcp 1040 ------- 2 1.0 5.0 2 18
- 4.690011 2 3 tcp 1040 ------- 2 1.0 5.0 2 18
r 4.690015 1 2 tcp 1040 ------- 2 1.0 5.0 3 19
+ 4.690015 2 3 tcp 1040 ------- 2 1.0 5.0 3 19
r 4.690017 1 2 tcp 1040 ------- 2 1.0 5.0 4 20
+ 4.690017 2 3 tcp 1040 ------- 2 1.0 5.0 4 20
- 4.69002 2 3 tcp 1040 ------- 2 1.0 5.0 3 19
- 4.690028 2 3 tcp 1040 ------- 2 1.0 5.0 4 20
r 4.735011 2 3 tcp 1040 ------- 2 1.0 5.0 1 17
+ 4.735011 3 5 tcp 1040 ------- 2 1.0 5.0 1 17
- 4.735011 3 5 tcp 1040 ------- 2 1.0 5.0 1 17
r 4.73502 2 3 tcp 1040 ------- 2 1.0 5.0 2 18
+ 4.73502 3 5 tcp 1040 ------- 2 1.0 5.0 2 18
- 4.73502 3 5 tcp 1040 ------- 2 1.0 5.0 2 18
r 4.735028 2 3 tcp 1040 ------- 2 1.0 5.0 3 19
+ 4.735028 3 5 tcp 1040 ------- 2 1.0 5.0 3 19
- 4.735028 3 5 tcp 1040 ------- 2 1.0 5.0 3 19
r 4.735036 2 3 tcp 1040 ------- 2 1.0 5.0 4 20
+ 4.735036 3 5 tcp 1040 ------- 2 1.0 5.0 4 20
- 4.735036 3 5 tcp 1040 ------- 2 1.0 5.0 4 20
r 4.780014 2 0 ack 40 ------- 1 4.0 0.0 2 13
4.78001  0  0  4  0  ack_ 2
4.78001  0  0  4  0  cwnd_ 5.000 
+ 4.780014 0 2 tcp 1040 ------- 1 0.0 4.0 6 21
- 4.780014 0 2 tcp 1040 ------- 1 0.0 4.0 6 21
4.78001  0  0  4  0  maxseq_ 6
+ 4.780014 0 2 tcp 1040 ------- 1 0.0 4.0 7 22
4.78001  0  0  4  0  maxseq_ 7
- 4.780016 0 2 tcp 1040 ------- 1 0.0 4.0 7 22
r 4.780022 2 0 ack 40 ------- 1 4.0 0.0 3 14
4.78002  0  0  4  0  ack_ 3
4.78002  0  0  4  0  cwnd_ 6.000 
+ 4.780022 0 2 tcp 1040 ------- 1 0.0 4.0 8 23
- 4.780022 0 2 tcp 1040 ------- 1 0.0 4.0 8 23
4.78002  0  0  4  0  maxseq_ 8
+ 4.780022 0 2 tcp 1040 ------- 1 0.0 4.0 9 24
4.78002  0  0  4  0  maxseq_ 9
- 4.780024 0 2 tcp 1040 ------- 1 0.0 4.0 9 24
r 4.780031 2 0 ack 40 ------- 1 4.0 0.0 4 15
4.78003  0  0  4  0  ack_ 4
4.78003  0  0  4  0  cwnd_ 7.000 
+ 4.780031 0 2 tcp 1040 ------- 1 0.0 4.0 10 25
- 4.780031 0 2 tcp 1040 ------- 1 0.0 4.0 10 25
4.78003  0  0  4  0  maxseq_ 10
+ 4.780031 0 2 tcp 1040 ------- 1 0.0 4.0 11 26
4.78003  0  0  4  0  maxseq_ 11
- 4.780033 0 2 tcp 1040 ------- 1 0.0 4.0 11 26
r 4.780039 2 0 ack 40 ------- 1 4.0 0.0 5 16
4.78004  0  0  4  0  ack_ 5
4.78004  0  0  4  0  cwnd_ 8.000 
+ 4.780039 0 2 tcp 1040 ------- 1 0.0 4.0 12 27
- 4.780039 0 2 tcp 1040 ------- 1 0.0 4.0 12 27
4.78004  0  0  4  0  maxseq_ 12
+ 4.780039 0 2 tcp 1040 ------- 1 0.0 4.0 13 28
4.78004  0  0  4  0  maxseq_ 13
- 4.780041 0 2 tcp 1040 ------- 1 0.0 4.0 13 28
r 5.245 3 5 tcp 40 ---A--- 2 1.0 5.0 0 12
+ 5.245 5 3 ack 40 ------- 2 5.0 1.0 1 29
- 5.245 5 3 ack 40 ------- 2 5.0 1.0 1 29
r 5.280016 0 2 tcp 1040 ------- 1 0.0 4.0 6 21
+ 5.280016 2 3 tcp 1040 ------- 1 0.0 4.0 6 21
- 5.280016 2 3 tcp 1040 ------- 1 0.0 4.0 6 21
r 5.280018 0 2 tcp 1040 ------- 1 0.0 4.0 7 22
+ 5.280018 2 3 tcp 1040 ------- 1 0.0 4.0 7 22
- 5.280024 2 3 tcp 1040 ------- 1 0.0 4.0 7 22
r 5.280024 0 2 tcp 1040 ------- 1 0.0 4.0 8 23
+ 5.280024 2 3 tcp 1040 ------- 1 0.0 4.0 8 23
r 5.280026 0 2 tcp 1040 ------- 1 0.0 4.0 9 24
+ 5.280026 2 3 tcp 1040 ------- 1 0.0 4.0 9 24
r 5.280033 0 2 tcp 1040 ------- 1 0.0 4.0 10 25
+ 5.280033 2 3 tcp 1040 ------- 1 0.0 4.0 10 25
- 5.280033 2 3 tcp 1040 ------- 1 0.0 4.0 8 23
r 5.280035 0 2 tcp 1040 ------- 1 0.0 4.0 11 26
+ 5.280035 2 3 tcp 1040 ------- 1 0.0 4.0 11 26
- 5.280041 2 3 tcp 1040 ------- 1 0.0 4.0 9 24
r 5.280041 0 2 tcp 1040 ------- 1 0.0 4.0 12 27
+ 5.280041 2 3 tcp 1040 ------- 1 0.0 4.0 12 27
r 5.280043 0 2 tcp 1040 ------- 1 0.0 4.0 13 28
+ 5.280043 2 3 tcp 1040 ------- 1 0.0 4.0 13 28
d 5.280043 2 3 tcp 1040 ------- 1 0.0 4.0 13 28
- 5.280049 2 3 tcp 1040 ------- 1 0.0 4.0 10 25
- 5.280058 2 3 tcp 1040 ------- 1 0.0 4.0 11 26
- 5.280066 2 3 tcp 1040 ------- 1 0.0 4.0 12 27
r 5.325024 2 3 tcp 1040 ------- 1 0.0 4.0 6 21
+ 5.325024 3 4 tcp 1040 ------- 1 0.0 4.0 6 21
- 5.325024 3 4 tcp 1040 ------- 1 0.0 4.0 6 21
r 5.325033 2 3 tcp 1040 ------- 1 0.0 4.0 7 22
+ 5.325033 3 4 tcp 1040 ------- 1 0.0 4.0 7 22
- 5.325033 3 4 tcp 1040 ------- 1 0.0 4.0 7 22
r 5.325041 2 3 tcp 1040 ------- 1 0.0 4.0 8 23
+ 5.325041 3 4 tcp 1040 ------- 1 0.0 4.0 8 23
- 5.325041 3 4 tcp 1040 ------- 1 0.0 4.0 8 23
r 5.325049 2 3 tcp 1040 ------- 1 0.0 4.0 9 24
+ 5.325049 3 4 tcp 1040 ------- 1 0.0 4.0 9 24
- 5.325049 3 4 tcp 1040 ------- 1 0.0 4.0 9 24
r 5.325058 2 3 tcp 1040 ------- 1 0.0 4.0 10 25
+ 5.325058 3 4 tcp 1040 ------- 1 0.0 4.0 10 25
- 5.325058 3 4 tcp 1040 ------- 1 0.0 4.0 10 25
r 5.325066 2 3 tcp 1040 ------- 1 0.0 4.0 11 26
+ 5.325066 3 4 tcp 1040 ------- 1 0.0 4.0 11 26
- 5.325066 3 4 tcp 1040 ------- 1 0.0 4.0 11 26
r 5.325074 2 3 tcp 1040 ------- 1 0.0 4.0 12 27
+ 5.325074 3 4 tcp 1040 ------- 1 0.0 4.0 12 27
- 5.325074 3 4 tcp 1040 ------- 1 0.0 4.0 12 27
r 5.535013 3 5 tcp 1040 ------- 2 1.0 5.0 1 17
+ 5.535013 5 3 ack 40 ------- 2 5.0 1.0 1 30
- 5.535013 5 3 ack 40 ------- 2 5.0 1.0 1 30
r 5.535022 3 5 tcp 1040 ------- 2 1.0 5.0 2 18
+ 5.535022 5 3 ack 40 ------- 2 5.0 1.0 2 31
- 5.535022 5 3 ack 40 ------- 2 5.0 1.0 2 31
r 5.53503 3 5 tcp 1040 ------- 2 1.0 5.0 3 19
+ 5.53503 5 3 ack 40 ------- 2 5.0 1.0 3 32
- 5.53503 5 3 ack 40 ------- 2 5.0 1.0 3 32
r 5.535038 3 5 tcp 1040 ------- 2 1.0 5.0 4 20
+ 5.535038 5 3 ack 40 ------- 2 5.0 1.0 4 33
- 5.535038 5 3 ack 40 ------- 2 5.0 1.0 4 33
r 5.825026 3 4 tcp 1040 ------- 1 0.0 4.0 6 21
+ 5.825026 4 3 ack 40 ------- 1 4.0 0.0 6 34
- 5.825026 4 3 ack 40 ------- 1 4.0 0.0 6 34
r 5.825035 3 4 tcp 1040 ------- 1 0.0 4.0 7 22
+ 5.825035 4 3 ack 40 ------- 1 4.0 0.0 7 35
- 5.825035 4 3 ack 40 ------- 1 4.0 0.0 7 35
r 5.825043 3 4 tcp 1040 ------- 1 0.0 4.0 8 23
+ 5.825043 4 3 ack 40 ------- 1 4.0 0.0 8 36
- 5.825043 4 3 ack 40 ------- 1 4.0 0.0 8 36
r 5.825051 3 4 tcp 1040 ------- 1 0.0 4.0 9 24
+ 5.825051 4 3 ack 40 ------- 1 4.0 0.0 9 37
- 5.825051 4 3 ack 40 ------- 1 4.0 0.0 9 37
r 5.82506 3 4 tcp 1040 ------- 1 0.0 4.0 10 25
+ 5.82506 4 3 ack 40 ------- 1 4.0 0.0 10 38
- 5.82506 4 3 ack 40 ------- 1 4.0 0.0 10 38
r 5.825068 3 4 tcp 1040 ------- 1 0.0 4.0 11 26
+ 5.825068 4 3 ack 40 ------- 1 4.0 0.0 11 39
- 5.825068 4 3 ack 40 ------- 1 4.0 0.0 11 39
r 5.825076 3 4 tcp 1040 ------- 1 0.0 4.0 12 27
+ 5.825076 4 3 ack 40 ------- 1 4.0 0.0 12 40
- 5.825076 4 3 ack 40 ------- 1 4.0 0.0 12 40
r 6.045001 5 3 ack 40 ------- 2 5.0 1.0 1 29
+ 6.045001 3 2 ack 40 ------- 2 5.0 1.0 1 29
- 6.045001 3 2 ack 40 ------- 2 5.0 1.0 1 29
r 6.090001 3 2 ack 40 ------- 2 5.0 1.0 1 29
+ 6.090001 2 1 ack 40 ------- 2 5.0 1.0 1 29
- 6.090001 2 1 ack 40 ------- 2 5.0 1.0 1 29
r 6.325026 4 3 ack 40 ------- 1 4.0 0.0 6 34
+ 6.325026 3 2 ack 40 ------- 1 4.0 0.0 6 34
- 6.325026 3 2 ack 40 ------- 1 4.0 0.0 6 34
r 6.325035 4 3 ack 40 ------- 1 4.0 0.0 7 35
+ 6.325035 3 2 ack 40 ------- 1 4.0 0.0 7 35
- 6.325035 3 2 ack 40 ------- 1 4.0 0.0 7 35
r 6.325043 4 3 ack 40 ------- 1 4.0 0.0 8 36
+ 6.325043 3 2 ack 40 ------- 1 4.0 0.0 8 36
- 6.325043 3 2 ack 40 ------- 1 4.0 0.0 8 36
r 6.325051 4 3 ack 40 ------- 1 4.0 0.0 9 37
+ 6.325051 3 2 ack 40 ------- 1 4.0 0.0 9 37
- 6.325051 3 2 ack 40 ------- 1 4.0 0.0 9 37
r 6.32506 4 3 ack 40 ------- 1 4.0 0.0 10 38
+ 6.32506 3 2 ack 40 ------- 1 4.0 0.0 10 38
- 6.32506 3 2 ack 40 ------- 1 4.0 0.0 10 38
r 6.325068 4 3 ack 40 ------- 1 4.0 0.0 11 39
+ 6.325068 3 2 ack 40 ------- 1 4.0 0.0 11 39
- 6.325068 3 2 ack 40 ------- 1 4.0 0.0 11 39
r 6.325076 4 3 ack 40 ------- 1 4.0 0.0 12 40
+ 6.325076 3 2 ack 40 ------- 1 4.0 0.0 12 40
- 6.325076 3 2 ack 40 ------- 1 4.0 0.0 12 40
r 6.335014 5 3 ack 40 ------- 2 5.0 1.0 1 30
+ 6.335014 3 2 ack 40 ------- 2 5.0 1.0 1 30
- 6.335014 3 2 ack 40 ------- 2 5.0 1.0 1 30
r 6.335022 5 3 ack 40 ------- 2 5.0 1.0 2 31
+ 6.335022 3 2 ack 40 ------- 2 5.0 1.0 2 31
- 6.335022 3 2 ack 40 ------- 2 5.0 1.0 2 31
r 6.33503 5 3 ack 40 ------- 2 5.0 1.0 3 32
+ 6.33503 3 2 ack 40 ------- 2 5.0 1.0 3 32
- 6.33503 3 2 ack 40 ------- 2 5.0 1.0 3 32
r 6.335038 5 3 ack 40 ------- 2 5.0 1.0 4 33
+ 6.335038 3 2 ack 40 ------- 2 5.0 1.0 4 33
- 6.335038 3 2 ack 40 ------- 2 5.0 1.0 4 33
r 6.370027 3 2 ack 40 ------- 1 4.0 0.0 6 34
+ 6.370027 2 0 ack 40 ------- 1 4.0 0.0 6 34
- 6.370027 2 0 ack 40 ------- 1 4.0 0.0 6 34
r 6.370035 3 2 ack 40 ------- 1 4.0 0.0 7 35
+ 6.370035 2 0 ack 40 ------- 1 4.0 0.0 7 35
- 6.370035 2 0 ack 40 ------- 1 4.0 0.0 7 35
r 6.370043 3 2 ack 40 ------- 1 4.0 0.0 8 36
+ 6.370043 2 0 ack 40 ------- 1 4.0 0.0 8 36
- 6.370043 2 0 ack 40 ------- 1 4.0 0.0 8 36
r 6.370052 3 2 ack 40 ------- 1 4.0 0.0 9 37
+ 6.370052 2 0 ack 40 ------- 1 4.0 0.0 9 37
- 6.370052 2 0 ack 40 ------- 1 4.0 0.0 9 37
r 6.37006 3 2 ack 40 ------- 1 4.0 0.0 10 38
+ 6.37006 2 0 ack 40 ------- 1 4.0 0.0 10 38
- 6.37006 2 0 ack 40 ------- 1 4.0 0.0 10 38
r 6.370068 3 2 ack 40 ------- 1 4.0 0.0 11 39
+ 6.370068 2 0 ack 40 ------- 1 4.0 0.0 11 39
- 6.370068 2 0 ack 40 ------- 1 4.0 0.0 11 39
r 6.370077 3 2 ack 40 ------- 1 4.0 0.0 12 40
+ 6.370077 2 0 ack 40 ------- 1 4.0 0.0 12 40
- 6.370077 2 0 ack 40 ------- 1 4.0 0.0 12 40
r 6.380014 3 2 ack 40 ------- 2 5.0 1.0 1 30
+ 6.380014 2 1 ack 40 ------- 2 5.0 1.0 1 30
- 6.380014 2 1 ack 40 ------- 2 5.0 1.0 1 30
r 6.380022 3 2 ack 40 ------- 2 5.0 1.0 2 31
+ 6.380022 2 1 ack 40 ------- 2 5.0 1.0 2 31
- 6.380022 2 1 ack 40 ------- 2 5.0 1.0 2 31
r 6.38003 3 2 ack 40 ------- 2 5.0 1.0 3 32
+ 6.38003 2 1 ack 40 ------- 2 5.0 1.0 3 32
- 6.38003 2 1 ack 40 ------- 2 5.0 1.0 3 32
r 6.380039 3 2 ack 40 ------- 2 5.0 1.0 4 33
+ 6.380039 2 1 ack 40 ------- 2 5.0 1.0 4 33
- 6.380039 2 1 ack 40 ------- 2 5.0 1.0 4 33
r 6.870027 2 0 ack 40 ------- 1 4.0 0.0 6 34
6.87003  0  0  4  0  ack_ 6
6.87003  0  0  4  0  cwnd_ 9.000 
+ 6.870027 0 2 tcp 1040 ------- 1 0.0 4.0 14 41
- 6.870027 0 2 tcp 1040 ------- 1 0.0 4.0 14 41
6.87003  0  0  4  0  maxseq_ 14
+ 6.870027 0 2 tcp 1040 ------- 1 0.0 4.0 15 42
6.87003  0  0  4  0  maxseq_ 15
- 6.870029 0 2 tcp 1040 ------- 1 0.0 4.0 15 42
r 6.870035 2 0 ack 40 ------- 1 4.0 0.0 7 35
6.87004  0  0  4  0  ack_ 7
6.87004  0  0  4  0  cwnd_ 10.000
+ 6.870035 0 2 tcp 1040 ------- 1 0.0 4.0 16 43
- 6.870035 0 2 tcp 1040 ------- 1 0.0 4.0 16 43
6.87004  0  0  4  0  maxseq_ 16
+ 6.870035 0 2 tcp 1040 ------- 1 0.0 4.0 17 44
6.87004  0  0  4  0  maxseq_ 17
- 6.870037 0 2 tcp 1040 ------- 1 0.0 4.0 17 44
r 6.870044 2 0 ack 40 ------- 1 4.0 0.0 8 36
6.87004  0  0  4  0  ack_ 8
6.87004  0  0  4  0  cwnd_ 11.000
+ 6.870044 0 2 tcp 1040 ------- 1 0.0 4.0 18 45
- 6.870044 0 2 tcp 1040 ------- 1 0.0 4.0 18 45
6.87004  0  0  4  0  maxseq_ 18
+ 6.870044 0 2 tcp 1040 ------- 1 0.0 4.0 19 46
6.87004  0  0  4  0  maxseq_ 19
- 6.870046 0 2 tcp 1040 ------- 1 0.0 4.0 19 46
r 6.870052 2 0 ack 40 ------- 1 4.0 0.0 9 37
6.87005  0  0  4  0  ack_ 9
6.87005  0  0  4  0  cwnd_ 12.000
+ 6.870052 0 2 tcp 1040 ------- 1 0.0 4.0 20 47
- 6.870052 0 2 tcp 1040 ------- 1 0.0 4.0 20 47
6.87005  0  0  4  0  maxseq_ 20
+ 6.870052 0 2 tcp 1040 ------- 1 0.0 4.0 21 48
6.87005  0  0  4  0  maxseq_ 21
- 6.870054 0 2 tcp 1040 ------- 1 0.0 4.0 21 48
r 6.87006 2 0 ack 40 ------- 1 4.0 0.0 10 38
6.87006  0  0  4  0  ack_ 10
6.87006  0  0  4  0  cwnd_ 13.000
+ 6.87006 0 2 tcp 1040 ------- 1 0.0 4.0 22 49
- 6.87006 0 2 tcp 1040 ------- 1 0.0 4.0 22 49
6.87006  0  0  4  0  maxseq_ 22
+ 6.87006 0 2 tcp 1040 ------- 1 0.0 4.0 23 50
6.87006  0  0  4  0  maxseq_ 23
- 6.870062 0 2 tcp 1040 ------- 1 0.0 4.0 23 50
r 6.870068 2 0 ack 40 ------- 1 4.0 0.0 11 39
6.87007  0  0  4  0  ack_ 11
6.87007  0  0  4  0  cwnd_ 14.000
+ 6.870068 0 2 tcp 1040 ------- 1 0.0 4.0 24 51
- 6.870068 0 2 tcp 1040 ------- 1 0.0 4.0 24 51
6.87007  0  0  4  0  maxseq_ 24
+ 6.870068 0 2 tcp 1040 ------- 1 0.0 4.0 25 52
6.87007  0  0  4  0  maxseq_ 25
- 6.870071 0 2 tcp 1040 ------- 1 0.0 4.0 25 52
r 6.870077 2 0 ack 40 ------- 1 4.0 0.0 12 40
6.87008  0  0  4  0  ack_ 12
6.87008  0  0  4  0  cwnd_ 15.000
+ 6.870077 0 2 tcp 1040 ------- 1 0.0 4.0 26 53
- 6.870077 0 2 tcp 1040 ------- 1 0.0 4.0 26 53
6.87008  0  0  4  0  maxseq_ 26
+ 6.870077 0 2 tcp 1040 ------- 1 0.0 4.0 27 54
6.87008  0  0  4  0  maxseq_ 27
- 6.870079 0 2 tcp 1040 ------- 1 0.0 4.0 27 54
r 6.890001 2 1 ack 40 ------- 2 5.0 1.0 1 29
r 7.180014 2 1 ack 40 ------- 2 5.0 1.0 1 30
r 7.180022 2 1 ack 40 ------- 2 5.0 1.0 2 31
7.18002  1  0  5  0  ack_ 2
7.18002  1  0  5  0  rtt_ 3.290 
+ 7.180022 1 2 tcp 1040 ------- 2 1.0 5.0 5 55
- 7.180022 1 2 tcp 1040 ------- 2 1.0 5.0 5 55
7.18002  1  0  5  0  maxseq_ 5
r 7.180031 2 1 ack 40 ------- 2 5.0 1.0 3 32
7.18003  1  0  5  0  ack_ 3
+ 7.180031 1 2 tcp 1040 ------- 2 1.0 5.0 6 56
- 7.180031 1 2 tcp 1040 ------- 2 1.0 5.0 6 56
7.18003  1  0  5  0  maxseq_ 6
r 7.180039 2 1 ack 40 ------- 2 5.0 1.0 4 33
7.18004  1  0  5  0  ack_ 4
+ 7.180039 1 2 tcp 1040 ------- 2 1.0 5.0 7 57
- 7.180039 1 2 tcp 1040 ------- 2 1.0 5.0 7 57
7.18004  1  0  5  0  maxseq_ 7
r 7.370029 0 2 tcp 1040 ------- 1 0.0 4.0 14 41
+ 7.370029 2 3 tcp 1040 ------- 1 0.0 4.0 14 41
- 7.370029 2 3 tcp 1040 ------- 1 0.0 4.0 14 41
r 7.370031 0 2 tcp 1040 ------- 1 0.0 4.0 15 42
+ 7.370031 2 3 tcp 1040 ------- 1 0.0 4.0 15 42
r 7.370037 0 2 tcp 1040 ------- 1 0.0 4.0 16 43
+ 7.370037 2 3 tcp 1040 ------- 1 0.0 4.0 16 43
- 7.370037 2 3 tcp 1040 ------- 1 0.0 4.0 15 42
r 7.370039 0 2 tcp 1040 ------- 1 0.0 4.0 17 44
+ 7.370039 2 3 tcp 1040 ------- 1 0.0 4.0 17 44
r 7.370046 0 2 tcp 1040 ------- 1 0.0 4.0 18 45
+ 7.370046 2 3 tcp 1040 ------- 1 0.0 4.0 18 45
- 7.370046 2 3 tcp 1040 ------- 1 0.0 4.0 16 43
r 7.370048 0 2 tcp 1040 ------- 1 0.0 4.0 19 46
+ 7.370048 2 3 tcp 1040 ------- 1 0.0 4.0 19 46
r 7.370054 0 2 tcp 1040 ------- 1 0.0 4.0 20 47
+ 7.370054 2 3 tcp 1040 ------- 1 0.0 4.0 20 47
d 7.370054 2 3 tcp 1040 ------- 1 0.0 4.0 20 47
- 7.370054 2 3 tcp 1040 ------- 1 0.0 4.0 17 44
r 7.370056 0 2 tcp 1040 ------- 1 0.0 4.0 21 48
+ 7.370056 2 3 tcp 1040 ------- 1 0.0 4.0 21 48
r 7.370062 0 2 tcp 1040 ------- 1 0.0 4.0 22 49
+ 7.370062 2 3 tcp 1040 ------- 1 0.0 4.0 22 49
d 7.370062 2 3 tcp 1040 ------- 1 0.0 4.0 22 49
- 7.370062 2 3 tcp 1040 ------- 1 0.0 4.0 18 45
r 7.370064 0 2 tcp 1040 ------- 1 0.0 4.0 23 50
+ 7.370064 2 3 tcp 1040 ------- 1 0.0 4.0 23 50
r 7.370071 0 2 tcp 1040 ------- 1 0.0 4.0 24 51
+ 7.370071 2 3 tcp 1040 ------- 1 0.0 4.0 24 51
d 7.370071 2 3 tcp 1040 ------- 1 0.0 4.0 24 51
- 7.370071 2 3 tcp 1040 ------- 1 0.0 4.0 19 46
r 7.370073 0 2 tcp 1040 ------- 1 0.0 4.0 25 52
+ 7.370073 2 3 tcp 1040 ------- 1 0.0 4.0 25 52
r 7.370079 0 2 tcp 1040 ------- 1 0.0 4.0 26 53
+ 7.370079 2 3 tcp 1040 ------- 1 0.0 4.0 26 53
d 7.370079 2 3 tcp 1040 ------- 1 0.0 4.0 26 53
- 7.370079 2 3 tcp 1040 ------- 1 0.0 4.0 21 48
r 7.370081 0 2 tcp 1040 ------- 1 0.0 4.0 27 54
+ 7.370081 2 3 tcp 1040 ------- 1 0.0 4.0 27 54
- 7.370087 2 3 tcp 1040 ------- 1 0.0 4.0 23 50
- 7.370096 2 3 tcp 1040 ------- 1 0.0 4.0 25 52
- 7.370104 2 3 tcp 1040 ------- 1 0.0 4.0 27 54
r 7.415037 2 3 tcp 1040 ------- 1 0.0 4.0 14 41
+ 7.415037 3 4 tcp 1040 ------- 1 0.0 4.0 14 41
- 7.415037 3 4 tcp 1040 ------- 1 0.0 4.0 14 41
r 7.415046 2 3 tcp 1040 ------- 1 0.0 4.0 15 42
+ 7.415046 3 4 tcp 1040 ------- 1 0.0 4.0 15 42
- 7.415046 3 4 tcp 1040 ------- 1 0.0 4.0 15 42
r 7.415054 2 3 tcp 1040 ------- 1 0.0 4.0 16 43
+ 7.415054 3 4 tcp 1040 ------- 1 0.0 4.0 16 43
- 7.415054 3 4 tcp 1040 ------- 1 0.0 4.0 16 43
r 7.415062 2 3 tcp 1040 ------- 1 0.0 4.0 17 44
+ 7.415062 3 4 tcp 1040 ------- 1 0.0 4.0 17 44
- 7.415062 3 4 tcp 1040 ------- 1 0.0 4.0 17 44
r 7.415071 2 3 tcp 1040 ------- 1 0.0 4.0 18 45
+ 7.415071 3 4 tcp 1040 ------- 1 0.0 4.0 18 45
- 7.415071 3 4 tcp 1040 ------- 1 0.0 4.0 18 45
r 7.415079 2 3 tcp 1040 ------- 1 0.0 4.0 19 46
+ 7.415079 3 4 tcp 1040 ------- 1 0.0 4.0 19 46
- 7.415079 3 4 tcp 1040 ------- 1 0.0 4.0 19 46
r 7.415087 2 3 tcp 1040 ------- 1 0.0 4.0 21 48
+ 7.415087 3 4 tcp 1040 ------- 1 0.0 4.0 21 48
- 7.415087 3 4 tcp 1040 ------- 1 0.0 4.0 21 48
r 7.415096 2 3 tcp 1040 ------- 1 0.0 4.0 23 50
+ 7.415096 3 4 tcp 1040 ------- 1 0.0 4.0 23 50
- 7.415096 3 4 tcp 1040 ------- 1 0.0 4.0 23 50
r 7.415104 2 3 tcp 1040 ------- 1 0.0 4.0 25 52
+ 7.415104 3 4 tcp 1040 ------- 1 0.0 4.0 25 52
- 7.415104 3 4 tcp 1040 ------- 1 0.0 4.0 25 52
r 7.415112 2 3 tcp 1040 ------- 1 0.0 4.0 27 54
+ 7.415112 3 4 tcp 1040 ------- 1 0.0 4.0 27 54
- 7.415112 3 4 tcp 1040 ------- 1 0.0 4.0 27 54
r 7.915039 3 4 tcp 1040 ------- 1 0.0 4.0 14 41
+ 7.915039 4 3 ack 48 ------- 1 4.0 0.0 12 58
- 7.915039 4 3 ack 48 ------- 1 4.0 0.0 12 58
r 7.915048 3 4 tcp 1040 ------- 1 0.0 4.0 15 42
+ 7.915048 4 3 ack 48 ------- 1 4.0 0.0 12 59
- 7.915048 4 3 ack 48 ------- 1 4.0 0.0 12 59
r 7.915056 3 4 tcp 1040 ------- 1 0.0 4.0 16 43
+ 7.915056 4 3 ack 48 ------- 1 4.0 0.0 12 60
- 7.915056 4 3 ack 48 ------- 1 4.0 0.0 12 60
r 7.915064 3 4 tcp 1040 ------- 1 0.0 4.0 17 44
+ 7.915064 4 3 ack 48 ------- 1 4.0 0.0 12 61
- 7.915064 4 3 ack 48 ------- 1 4.0 0.0 12 61
r 7.915073 3 4 tcp 1040 ------- 1 0.0 4.0 18 45
+ 7.915073 4 3 ack 48 ------- 1 4.0 0.0 12 62
- 7.915073 4 3 ack 48 ------- 1 4.0 0.0 12 62
r 7.915081 3 4 tcp 1040 ------- 1 0.0 4.0 19 46
+ 7.915081 4 3 ack 48 ------- 1 4.0 0.0 12 63
- 7.915081 4 3 ack 48 ------- 1 4.0 0.0 12 63
r 7.915089 3 4 tcp 1040 ------- 1 0.0 4.0 21 48
+ 7.915089 4 3 ack 56 ------- 1 4.0 0.0 12 64
- 7.915089 4 3 ack 56 ------- 1 4.0 0.0 12 64
r 7.915098 3 4 tcp 1040 ------- 1 0.0 4.0 23 50
+ 7.915098 4 3 ack 64 ------- 1 4.0 0.0 12 65
- 7.915098 4 3 ack 64 ------- 1 4.0 0.0 12 65
r 7.915106 3 4 tcp 1040 ------- 1 0.0 4.0 25 52
+ 7.915106 4 3 ack 64 ------- 1 4.0 0.0 12 66
- 7.915106 4 3 ack 64 ------- 1 4.0 0.0 12 66
r 7.915114 3 4 tcp 1040 ------- 1 0.0 4.0 27 54
+ 7.915114 4 3 ack 64 ------- 1 4.0 0.0 12 67
- 7.915114 4 3 ack 64 ------- 1 4.0 0.0 12 67
r 7.980024 1 2 tcp 1040 ------- 2 1.0 5.0 5 55
+ 7.980024 2 3 tcp 1040 ------- 2 1.0 5.0 5 55
- 7.980024 2 3 tcp 1040 ------- 2 1.0 5.0 5 55
r 7.980033 1 2 tcp 1040 ------- 2 1.0 5.0 6 56
+ 7.980033 2 3 tcp 1040 ------- 2 1.0 5.0 6 56
- 7.980033 2 3 tcp 1040 ------- 2 1.0 5.0 6 56
r 7.980041 1 2 tcp 1040 ------- 2 1.0 5.0 7 57
+ 7.980041 2 3 tcp 1040 ------- 2 1.0 5.0 7 57
- 7.980041 2 3 tcp 1040 ------- 2 1.0 5.0 7 57
r 8.025033 2 3 tcp 1040 ------- 2 1.0 5.0 5 55
+ 8.025033 3 5 tcp 1040 ------- 2 1.0 5.0 5 55
- 8.025033 3 5 tcp 1040 ------- 2 1.0 5.0 5 55
r 8.025041 2 3 tcp 1040 ------- 2 1.0 5.0 6 56
+ 8.025041 3 5 tcp 1040 ------- 2 1.0 5.0 6 56
- 8.025041 3 5 tcp 1040 ------- 2 1.0 5.0 6 56
r 8.025049 2 3 tcp 1040 ------- 2 1.0 5.0 7 57
+ 8.025049 3 5 tcp 1040 ------- 2 1.0 5.0 7 57
- 8.025049 3 5 tcp 1040 ------- 2 1.0 5.0 7 57
r 8.415039 4 3 ack 48 ------- 1 4.0 0.0 12 58
+ 8.415039 3 2 ack 48 ------- 1 4.0 0.0 12 58
- 8.415039 3 2 ack 48 ------- 1 4.0 0.0 12 58
r 8.415048 4 3 ack 48 ------- 1 4.0 0.0 12 59
+ 8.415048 3 2 ack 48 ------- 1 4.0 0.0 12 59
- 8.415048 3 2 ack 48 ------- 1 4.0 0.0 12 59
r 8.415056 4 3 ack 48 ------- 1 4.0 0.0 12 60
+ 8.415056 3 2 ack 48 ------- 1 4.0 0.0 12 60
- 8.415056 3 2 ack 48 ------- 1 4.0 0.0 12 60
r 8.415064 4 3 ack 48 ------- 1 4.0 0.0 12 61
+ 8.415064 3 2 ack 48 ------- 1 4.0 0.0 12 61
- 8.415064 3 2 ack 48 ------- 1 4.0 0.0 12 61
r 8.415073 4 3 ack 48 ------- 1 4.0 0.0 12 62
+ 8.415073 3 2 ack 48 ------- 1 4.0 0.0 12 62
- 8.415073 3 2 ack 48 ------- 1 4.0 0.0 12 62
r 8.415081 4 3 ack 48 ------- 1 4.0 0.0 12 63
+ 8.415081 3 2 ack 48 ------- 1 4.0 0.0 12 63
- 8.415081 3 2 ack 48 ------- 1 4.0 0.0 12 63
r 8.415089 4 3 ack 56 ------- 1 4.0 0.0 12 64
+ 8.415089 3 2 ack 56 ------- 1 4.0 0.0 12 64
- 8.415089 3 2 ack 56 ------- 1 4.0 0.0 12 64
r 8.415098 4 3 ack 64 ------- 1 4.0 0.0 12 65
+ 8.415098 3 2 ack 64 ------- 1 4.0 0.0 12 65
- 8.415098 3 2 ack 64 ------- 1 4.0 0.0 12 65
r 8.415106 4 3 ack 64 ------- 1 4.0 0.0 12 66
+ 8.415106 3 2 ack 64 ------- 1 4.0 0.0 12 66
- 8.415106 3 2 ack 64 ------- 1 4.0 0.0 12 66
r 8.415114 4 3 ack 64 ------- 1 4.0 0.0 12 67
+ 8.415114 3 2 ack 64 ------- 1 4.0 0.0 12 67
- 8.415114 3 2 ack 64 ------- 1 4.0 0.0 12 67
r 8.46004 3 2 ack 48 ------- 1 4.0 0.0 12 58
+ 8.46004 2 0 ack 48 ------- 1 4.0 0.0 12 58
- 8.46004 2 0 ack 48 ------- 1 4.0 0.0 12 58
r 8.460048 3 2 ack 48 ------- 1 4.0 0.0 12 59
+ 8.460048 2 0 ack 48 ------- 1 4.0 0.0 12 59
- 8.460048 2 0 ack 48 ------- 1 4.0 0.0 12 59
r 8.460056 3 2 ack 48 ------- 1 4.0 0.0 12 60
+ 8.460056 2 0 ack 48 ------- 1 4.0 0.0 12 60
- 8.460056 2 0 ack 48 ------- 1 4.0 0.0 12 60
r 8.460065 3 2 ack 48 ------- 1 4.0 0.0 12 61
+ 8.460065 2 0 ack 48 ------- 1 4.0 0.0 12 61
- 8.460065 2 0 ack 48 ------- 1 4.0 0.0 12 61
r 8.460073 3 2 ack 48 ------- 1 4.0 0.0 12 62
+ 8.460073 2 0 ack 48 ------- 1 4.0 0.0 12 62
- 8.460073 2 0 ack 48 ------- 1 4.0 0.0 12 62
r 8.460081 3 2 ack 48 ------- 1 4.0 0.0 12 63
+ 8.460081 2 0 ack 48 ------- 1 4.0 0.0 12 63
- 8.460081 2 0 ack 48 ------- 1 4.0 0.0 12 63
r 8.46009 3 2 ack 56 ------- 1 4.0 0.0 12 64
+ 8.46009 2 0 ack 56 ------- 1 4.0 0.0 12 64
- 8.46009 2 0 ack 56 ------- 1 4.0 0.0 12 64
r 8.460098 3 2 ack 64 ------- 1 4.0 0.0 12 65
+ 8.460098 2 0 ack 64 ------- 1 4.0 0.0 12 65
- 8.460098 2 0 ack 64 ------- 1 4.0 0.0 12 65
r 8.460107 3 2 ack 64 ------- 1 4.0 0.0 12 66
+ 8.460107 2 0 ack 64 ------- 1 4.0 0.0 12 66
- 8.460107 2 0 ack 64 ------- 1 4.0 0.0 12 66
r 8.460115 3 2 ack 64 ------- 1 4.0 0.0 12 67
+ 8.460115 2 0 ack 64 ------- 1 4.0 0.0 12 67
- 8.460115 2 0 ack 64 ------- 1 4.0 0.0 12 67
r 8.825035 3 5 tcp 1040 ------- 2 1.0 5.0 5 55
+ 8.825035 5 3 ack 40 ------- 2 5.0 1.0 5 68
- 8.825035 5 3 ack 40 ------- 2 5.0 1.0 5 68
r 8.825043 3 5 tcp 1040 ------- 2 1.0 5.0 6 56
+ 8.825043 5 3 ack 40 ------- 2 5.0 1.0 6 69
- 8.825043 5 3 ack 40 ------- 2 5.0 1.0 6 69
r 8.825051 3 5 tcp 1040 ------- 2 1.0 5.0 7 57
+ 8.825051 5 3 ack 40 ------- 2 5.0 1.0 7 70
- 8.825051 5 3 ack 40 ------- 2 5.0 1.0 7 70
r 8.96004 2 0 ack 48 ------- 1 4.0 0.0 12 58
+ 8.96004 0 2 tcp 1040 ------- 1 0.0 4.0 28 71
- 8.96004 0 2 tcp 1040 ------- 1 0.0 4.0 28 71
8.96004  0  0  4  0  maxseq_ 28
r 8.960048 2 0 ack 48 ------- 1 4.0 0.0 12 59
+ 8.960048 0 2 tcp 1040 ------- 1 0.0 4.0 29 72
- 8.960048 0 2 tcp 1040 ------- 1 0.0 4.0 29 72