0.00000  0  0  4  0  cwnd_ 2.000 
0.00000  0  0  4  0  ssthresh_ 20
0.00000  0  0  4  0  ack_ -1
0.00000  0  0  4  0  maxseq_ -1
0.00000  0  0  4  0  rtt_ 0.000 
0.00000  1  0  5  0  cwnd_ 2.000 
0.00000  1  0  5  0  ssthresh_ 20
0.00000  1  0  5  0  ack_ -1
0.00000  1  0  5  0  maxseq_ -1
0.00000  1  0  5  0  rtt_ 0.000 
0.00000  0  0  4  0  ssthresh_ 753
0.00000  1  0  5  0  ssthresh_ 853
+ 0.4 0 2 tcp 40 ------- 1 0.0 4.0 0 0
- 0.4 0 2 tcp 40 ------- 1 0.0 4.0 0 0
0.40000  0  0  4  0  maxseq_ 0
+ 0.4 0 2 tcp 1040 ------- 1 0.0 4.0 1 1
0.40000  0  0  4  0  maxseq_ 1
+ 0.4 1 2 tcp 40 ------- 2 1.0 5.0 0 2
- 0.4 1 2 tcp 40 ------- 2 1.0 5.0 0 2
0.40000  1  0  5  0  maxseq_ 0
+ 0.4 1 2 tcp 1040 ------- 2 1.0 5.0 1 3
0.40000  1  0  5  0  maxseq_ 1
- 0.4 0 2 tcp 1040 ------- 1 0.0 4.0 1 1
- 0.4 1 2 tcp 1040 ------- 2 1.0 5.0 1 3
r 0.9 0 2 tcp 40 ------- 1 0.0 4.0 0 0
+ 0.9 2 3 tcp 40 ------- 1 0.0 4.0 0 0
- 0.9 2 3 tcp 40 ------- 1 0.0 4.0 0 0
r 0.900002 0 2 tcp 1040 ------- 1 0.0 4.0 1 1
+ 0.900002 2 3 tcp 1040 ------- 1 0.0 4.0 1 1
- 0.900002 2 3 tcp 1040 ------- 1 0.0 4.0 1 1
r 0.968 2 3 tcp 40 ------- 1 0.0 4.0 0 0
+ 0.968 3 4 tcp 40 ------- 1 0.0 4.0 0 0
- 0.968 3 4 tcp 40 ------- 1 0.0 4.0 0 0
r 0.96801 2 3 tcp 1040 ------- 1 0.0 4.0 1 1
+ 0.96801 3 4 tcp 1040 ------- 1 0.0 4.0 1 1
- 0.96801 3 4 tcp 1040 ------- 1 0.0 4.0 1 1
r 1.2 1 2 tcp 40 ------- 2 1.0 5.0 0 2
+ 1.2 2 3 tcp 40 ------- 2 1.0 5.0 0 2
- 1.2 2 3 tcp 40 ------- 2 1.0 5.0 0 2
r 1.200002 1 2 tcp 1040 ------- 2 1.0 5.0 1 3
+ 1.200002 2 3 tcp 1040 ------- 2 1.0 5.0 1 3
- 1.200002 2 3 tcp 1040 ------- 2 1.0 5.0 1 3
r 1.268 2 3 tcp 40 ------- 2 1.0 5.0 0 2
+ 1.268 3 5 tcp 40 ------- 2 1.0 5.0 0 2
- 1.268 3 5 tcp 40 ------- 2 1.0 5.0 0 2
r 1.26801 2 3 tcp 1040 ------- 2 1.0 5.0 1 3
+ 1.26801 3 5 tcp 1040 ------- 2 1.0 5.0 1 3
- 1.26801 3 5 tcp 1040 ------- 2 1.0 5.0 1 3
r 1.468 3 4 tcp 40 ------- 1 0.0 4.0 0 0
+ 1.468 4 3 ack 40 ------- 1 4.0 0.0 0 4
- 1.468 4 3 ack 40 ------- 1 4.0 0.0 0 4
r 1.468013 3 4 tcp 1040 ------- 1 0.0 4.0 1 1
+ 1.468013 4 3 ack 40 ------- 1 4.0 0.0 1 5
- 1.468013 4 3 ack 40 ------- 1 4.0 0.0 1 5
r 1.968001 4 3 ack 40 ------- 1 4.0 0.0 0 4
+ 1.968001 3 2 ack 40 ------- 1 4.0 0.0 0 4
- 1.968001 3 2 ack 40 ------- 1 4.0 0.0 0 4
r 1.968013 4 3 ack 40 ------- 1 4.0 0.0 1 5
+ 1.968013 3 2 ack 40 ------- 1 4.0 0.0 1 5
- 1.968013 3 2 ack 40 ------- 1 4.0 0.0 1 5
r 2.036001 3 2 ack 40 ------- 1 4.0 0.0 0 4
+ 2.036001 2 0 ack 40 ------- 1 4.0 0.0 0 4
- 2.036001 2 0 ack 40 ------- 1 4.0 0.0 0 4
r 2.036013 3 2 ack 40 ------- 1 4.0 0.0 1 5
+ 2.036013 2 0 ack 40 ------- 1 4.0 0.0 1 5
- 2.036013 2 0 ack 40 ------- 1 4.0 0.0 1 5
r 2.068 3 5 tcp 40 ------- 2 1.0 5.0 0 2
+ 2.068 5 3 ack 40 ------- 2 5.0 1.0 0 6
- 2.068 5 3 ack 40 ------- 2 5.0 1.0 0 6
r 2.068013 3 5 tcp 1040 ------- 2 1.0 5.0 1 3
+ 2.068013 5 3 ack 40 ------- 2 5.0 1.0 1 7
- 2.068013 5 3 ack 40 ------- 2 5.0 1.0 1 7
r 2.536001 2 0 ack 40 ------- 1 4.0 0.0 0 4
2.53600  0  0  4  0  ack_ 0
2.53600  0  0  4  0  rtt_ 2.136 
2.53600  0  0  4  0  cwnd_ 3.000 
+ 2.536001 0 2 tcp 1040 ------- 1 0.0 4.0 2 8
- 2.536001 0 2 tcp 1040 ------- 1 0.0 4.0 2 8
2.53600  0  0  4  0  maxseq_ 2
+ 2.536001 0 2 tcp 1040 ------- 1 0.0 4.0 3 9
2.53600  0  0  4  0  maxseq_ 3
- 2.536003 0 2 tcp 1040 ------- 1 0.0 4.0 3 9
r 2.536013 2 0 ack 40 ------- 1 4.0 0.0 1 5
2.53601  0  0  4  0  ack_ 1
2.53601  0  0  4  0  cwnd_ 4.000 
+ 2.536013 0 2 tcp 1040 ------- 1 0.0 4.0 4 10
- 2.536013 0 2 tcp 1040 ------- 1 0.0 4.0 4 10
2.53601  0  0  4  0  maxseq_ 4
+ 2.536013 0 2 tcp 1040 ------- 1 0.0 4.0 5 11
2.53601  0  0  4  0  maxseq_ 5
- 2.536015 0 2 tcp 1040 ------- 1 0.0 4.0 5 11
r 2.868001 5 3 ack 40 ------- 2 5.0 1.0 0 6
+ 2.868001 3 2 ack 40 ------- 2 5.0 1.0 0 6
- 2.868001 3 2 ack 40 ------- 2 5.0 1.0 0 6
r 2.868013 5 3 ack 40 ------- 2 5.0 1.0 1 7
+ 2.868013 3 2 ack 40 ------- 2 5.0 1.0 1 7
- 2.868013 3 2 ack 40 ------- 2 5.0 1.0 1 7
r 2.936001 3 2 ack 40 ------- 2 5.0 1.0 0 6
+ 2.936001 2 1 ack 40 ------- 2 5.0 1.0 0 6
- 2.936001 2 1 ack 40 ------- 2 5.0 1.0 0 6
r 2.936013 3 2 ack 40 ------- 2 5.0 1.0 1 7
+ 2.936013 2 1 ack 40 ------- 2 5.0 1.0 1 7
- 2.936013 2 1 ack 40 ------- 2 5.0 1.0 1 7
r 3.036003 0 2 tcp 1040 ------- 1 0.0 4.0 2 8
+ 3.036003 2 3 tcp 1040 ------- 1 0.0 4.0 2 8
- 3.036003 2 3 tcp 1040 ------- 1 0.0 4.0 2 8
r 3.036005 0 2 tcp 1040 ------- 1 0.0 4.0 3 9
+ 3.036005 2 3 tcp 1040 ------- 1 0.0 4.0 3 9
- 3.036011 2 3 tcp 1040 ------- 1 0.0 4.0 3 9
r 3.036015 0 2 tcp 1040 ------- 1 0.0 4.0 4 10
+ 3.036015 2 3 tcp 1040 ------- 1 0.0 4.0 4 10
r 3.036017 0 2 tcp 1040 ------- 1 0.0 4.0 5 11
+ 3.036017 2 3 tcp 1040 ------- 1 0.0 4.0 5 11
- 3.03602 2 3 tcp 1040 ------- 1 0.0 4.0 4 10
- 3.036028 2 3 tcp 1040 ------- 1 0.0 4.0 5 11
r 3.104011 2 3 tcp 1040 ------- 1 0.0 4.0 2 8
+ 3.104011 3 4 tcp 1040 ------- 1 0.0 4.0 2 8
- 3.104011 3 4 tcp 1040 ------- 1 0.0 4.0 2 8
r 3.10402 2 3 tcp 1040 ------- 1 0.0 4.0 3 9
+ 3.10402 3 4 tcp 1040 ------- 1 0.0 4.0 3 9
- 3.10402 3 4 tcp 1040 ------- 1 0.0 4.0 3 9
r 3.104028 2 3 tcp 1040 ------- 1 0.0 4.0 4 10
+ 3.104028 3 4 tcp 1040 ------- 1 0.0 4.0 4 10
- 3.104028 3 4 tcp 1040 ------- 1 0.0 4.0 4 10
r 3.104036 2 3 tcp 1040 ------- 1 0.0 4.0 5 11
+ 3.104036 3 4 tcp 1040 ------- 1 0.0 4.0 5 11
- 3.104036 3 4 tcp 1040 ------- 1 0.0 4.0 5 11
3.40000  1  0  5  0  cwnd_ 1.000 
3.40000  1  0  5  0  ssthresh_ 2
+ 3.4 1 2 tcp 40 ---A--- 2 1.0 5.0 0 12
- 3.4 1 2 tcp 40 ---A--- 2 1.0 5.0 0 12
r 3.604013 3 4 tcp 1040 ------- 1 0.0 4.0 2 8
+ 3.604013 4 3 ack 40 ------- 1 4.0 0.0 2 13
- 3.604013 4 3 ack 40 ------- 1 4.0 0.0 2 13
r 3.604022 3 4 tcp 1040 ------- 1 0.0 4.0 3 9
+ 3.604022 4 3 ack 40 ------- 1 4.0 0.0 3 14
- 3.604022 4 3 ack 40 ------- 1 4.0 0.0 3 14
r 3.60403 3 4 tcp 1040 ------- 1 0.0 4.0 4 10
+ 3.60403 4 3 ack 40 ------- 1 4.0 0.0 4 15
- 3.60403 4 3 ack 40 ------- 1 4.0 0.0 4 15
r 3.604038 3 4 tcp 1040 ------- 1 0.0 4.0 5 11
+ 3.604038 4 3 ack 40 ------- 1 4.0 0.0 5 16
- 3.604038 4 3 ack 40 ------- 1 4.0 0.0 5 16
r 3.736001 2 1 ack 40 ------- 2 5.0 1.0 0 6
3.73600  1  0  5  0  ack_ 0
3.73600  1  0  5  0  cwnd_ 2.000 
+ 3.736001 1 2 tcp 1040 ------- 2 1.0 5.0 1 17
- 3.736001 1 2 tcp 1040 ------- 2 1.0 5.0 1 17
+ 3.736001 1 2 tcp 1040 ------- 2 1.0 5.0 2 18
3.73600  1  0  5  0  maxseq_ 2
- 3.736003 1 2 tcp 1040 ------- 2 1.0 5.0 2 18
r 3.736013 2 1 ack 40 ------- 2 5.0 1.0 1 7
3.73601  1  0  5  0  ack_ 1
3.73601  1  0  5  0  cwnd_ 3.000 
+ 3.736013 1 2 tcp 1040 ------- 2 1.0 5.0 3 19
- 3.736013 1 2 tcp 1040 ------- 2 1.0 5.0 3 19
3.73601  1  0  5  0  maxseq_ 3
+ 3.736013 1 2 tcp 1040 ------- 2 1.0 5.0 4 20
3.73601  1  0  5  0  maxseq_ 4
- 3.736015 1 2 tcp 1040 ------- 2 1.0 5.0 4 20
r 4.104014 4 3 ack 40 ------- 1 4.0 0.0 2 13
+ 4.104014 3 2 ack 40 ------- 1 4.0 0.0 2 13
- 4.104014 3 2 ack 40 ------- 1 4.0 0.0 2 13
r 4.104022 4 3 ack 40 ------- 1 4.0 0.0 3 14
+ 4.104022 3 2 ack 40 ------- 1 4.0 0.0 3 14
- 4.104022 3 2 ack 40 ------- 1 4.0 0.0 3 14
r 4.10403 4 3 ack 40 ------- 1 4.0 0.0 4 15
+ 4.10403 3 2 ack 40 ------- 1 4.0 0.0 4 15
- 4.10403 3 2 ack 40 ------- 1 4.0 0.0 4 15
r 4.104038 4 3 ack 40 ------- 1 4.0 0.0 5 16
+ 4.104038 3 2 ack 40 ------- 1 4.0 0.0 5 16
- 4.104038 3 2 ack 40 ------- 1 4.0 0.0 5 16
r 4.172014 3 2 ack 40 ------- 1 4.0 0.0 2 13
+ 4.172014 2 0 ack 40 ------- 1 4.0 0.0 2 13
- 4.172014 2 0 ack 40 ------- 1 4.0 0.0 2 13
r 4.172022 3 2 ack 40 ------- 1 4.0 0.0 3 14
+ 4.172022 2 0 ack 40 ------- 1 4.0 0.0 3 14
- 4.172022 2 0 ack 40 ------- 1 4.0 0.0 3 14
r 4.17203 3 2 ack 40 ------- 1 4.0 0.0 4 15
+ 4.17203 2 0 ack 40 ------- 1 4.0 0.0 4 15
- 4.17203 2 0 ack 40 ------- 1 4.0 0.0 4 15
r 4.172039 3 2 ack 40 ------- 1 4.0 0.0 5 16
+ 4.172039 2 0 ack 40 ------- 1 4.0 0.0 5 16
- 4.172039 2 0 ack 40 ------- 1 4.0 0.0 5 16
r 4.2 1 2 tcp 40 ---A--- 2 1.0 5.0 0 12
+ 4.2 2 3 tcp 40 ---A--- 2 1.0 5.0 0 12
- 4.2 2 3 tcp 40 ---A--- 2 1.0 5.0 0 12
r 4.268 2 3 tcp 40 ---A--- 2 1.0 5.0 0 12
+ 4.268 3 5 tcp 40 ---A--- 2 1.0 5.0 0 12
- 4.268 3 5 tcp 40 ---A--- 2 1.0 5.0 0 12
r 4.536003 1 2 tcp 1040 ------- 2 1.0 5.0 1 17
+ 4.536003 2 3 tcp 1040 ------- 2 1.0 5.0 1 17
- 4.536003 2 3 tcp 1040 ------- 2 1.0 5.0 1 17
r 4.536005 1 2 tcp 1040 ------- 2 1.0 5.0 2 18
+ 4.536005 2 3 tcp 1040 ------- 2 1.0 5.0 2 18
- 4.536011 2 3 tcp 1040 ------- 2 1.0 5.0 2 18
r 4.536015 1 2 tcp 1040 ------- 2 1.0 5.0 3 19
+ 4.536015 2 3 tcp 1040 ------- 2 1.0 5.0 3 19
r 4.536017 1 2 tcp 1040 ------- 2 1.0 5.0 4 20
+ 4.536017 2 3 tcp 1040 ------- 2 1.0 5.0 4 20
- 4.53602 2 3 tcp 1040 ------- 2 1.0 5.0 3 19
- 4.536028 2 3 tcp 1040 ------- 2 1.0 5.0 4 20
r 4.604011 2 3 tcp 1040 ------- 2 1.0 5.0 1 17
+ 4.604011 3 5 tcp 1040 ------- 2 1.0 5.0 1 17
- 4.604011 3 5 tcp 1040 ------- 2 1.0 5.0 1 17
r 4.60402 2 3 tcp 1040 ------- 2 1.0 5.0 2 18
+ 4.60402 3 5 tcp 1040 ------- 2 1.0 5.0 2 18
- 4.60402 3 5 tcp 1040 ------- 2 1.0 5.0 2 18
r 4.604028 2 3 tcp 1040 ------- 2 1.0 5.0 3 19
+ 4.604028 3 5 tcp 1040 ------- 2 1.0 5.0 3 19
- 4.604028 3 5 tcp 1040 ------- 2 1.0 5.0 3 19
r 4.604036 2 3 tcp 1040 ------- 2 1.0 5.0 4 20
+ 4.604036 3 5 tcp 1040 ------- 2 1.0 5.0 4 20
- 4.604036 3 5 tcp 1040 ------- 2 1.0 5.0 4 20
r 4.672014 2 0 ack 40 ------- 1 4.0 0.0 2 13
4.67201  0  0  4  0  ack_ 2
4.67201  0  0  4  0  cwnd_ 5.000 
+ 4.672014 0 2 tcp 1040 ------- 1 0.0 4.0 6 21
- 4.672014 0 2 tcp 1040 ------- 1 0.0 4.0 6 21
4.67201  0  0  4  0  maxseq_ 6
+ 4.672014 0 2 tcp 1040 ------- 1 0.0 4.0 7 22
4.67201  0  0  4  0  maxseq_ 7
- 4.672016 0 2 tcp 1040 ------- 1 0.0 4.0 7 22
r 4.672022 2 0 ack 40 ------- 1 4.0 0.0 3 14
4.67202  0  0  4  0  ack_ 3
4.67202  0  0  4  0  cwnd_ 6.000 
+ 4.672022 0 2 tcp 1040 ------- 1 0.0 4.0 8 23
- 4.672022 0 2 tcp 1040 ------- 1 0.0 4.0 8 23
4.67202  0  0  4  0  maxseq_ 8
+ 4.672022 0 2 tcp 1040 ------- 1 0.0 4.0 9 24
4.67202  0  0  4  0  maxseq_ 9
- 4.672024 0 2 tcp 1040 ------- 1 0.0 4.0 9 24
r 4.672031 2 0 ack 40 ------- 1 4.0 0.0 4 15
4.67203  0  0  4  0  ack_ 4
4.67203  0  0  4  0  cwnd_ 7.000 
+ 4.672031 0 2 tcp 1040 ------- 1 0.0 4.0 10 25
- 4.672031 0 2 tcp 1040 ------- 1 0.0 4.0 10 25
4.67203  0  0  4  0  maxseq_ 10
+ 4.672031 0 2 tcp 1040 ------- 1 0.0 4.0 11 26
4.67203  0  0  4  0  maxseq_ 11
- 4.672033 0 2 tcp 1040 ------- 1 0.0 4.0 11 26
r 4.672039 2 0 ack 40 ------- 1 4.0 0.0 5 16
4.67204  0  0  4  0  ack_ 5
4.67204  0  0  4  0  cwnd_ 8.000 
+ 4.672039 0 2 tcp 1040 ------- 1 0.0 4.0 12 27
- 4.672039 0 2 tcp 1040 ------- 1 0.0 4.0 12 27
4.67204  0  0  4  0  maxseq_ 12
+ 4.672039 0 2 tcp 1040 ------- 1 0.0 4.0 13 28
4.67204  0  0  4  0  maxseq_ 13
- 4.672041 0 2 tcp 1040 ------- 1 0.0 4.0 13 28
r 5.068 3 5 tcp 40 ---A--- 2 1.0 5.0 0 12
+ 5.068 5 3 ack 40 ------- 2 5.0 1.0 1 29
- 5.068 5 3 ack 40 ------- 2 5.0 1.0 1 29
r 5.172016 0 2 tcp 1040 ------- 1 0.0 4.0 6 21
+ 5.172016 2 3 tcp 1040 ------- 1 0.0 4.0 6 21
- 5.172016 2 3 tcp 1040 ------- 1 0.0 4.0 6 21
r 5.172018 0 2 tcp 1040 ------- 1 0.0 4.0 7 22
+ 5.172018 2 3 tcp 1040 ------- 1 0.0 4.0 7 22
r 5.172024 0 2 tcp 1040 ------- 1 0.0 4.0 8 23
+ 5.172024 2 3 tcp 1040 ------- 1 0.0 4.0 8 23
- 5.172024 2 3 tcp 1040 ------- 1 0.0 4.0 7 22
r 5.172026 0 2 tcp 1040 ------- 1 0.0 4.0 9 24
+ 5.172026 2 3 tcp 1040 ------- 1 0.0 4.0 9 24
r 5.172033 0 2 tcp 1040 ------- 1 0.0 4.0 10 25
+ 5.172033 2 3 tcp 1040 ------- 1 0.0 4.0 10 25
- 5.172033 2 3 tcp 1040 ------- 1 0.0 4.0 8 23
r 5.172035 0 2 tcp 1040 ------- 1 0.0 4.0 11 26
+ 5.172035 2 3 tcp 1040 ------- 1 0.0 4.0 11 26
r 5.172041 0 2 tcp 1040 ------- 1 0.0 4.0 12 27
+ 5.172041 2 3 tcp 1040 ------- 1 0.0 4.0 12 27
- 5.172041 2 3 tcp 1040 ------- 1 0.0 4.0 9 24
r 5.172043 0 2 tcp 1040 ------- 1 0.0 4.0 13 28
+ 5.172043 2 3 tcp 1040 ------- 1 0.0 4.0 13 28
- 5.172049 2 3 tcp 1040 ------- 1 0.0 4.0 10 25
- 5.172058 2 3 tcp 1040 ------- 1 0.0 4.0 11 26
- 5.172066 2 3 tcp 1040 ------- 1 0.0 4.0 12 27
- 5.172074 2 3 tcp 1040 ------- 1 0.0 4.0 13 28
r 5.240024 2 3 tcp 1040 ------- 1 0.0 4.0 6 21
+ 5.240024 3 4 tcp 1040 ------- 1 0.0 4.0 6 21
- 5.240024 3 4 tcp 1040 ------- 1 0.0 4.0 6 21
r 5.240033 2 3 tcp 1040 ------- 1 0.0 4.0 7 22
+ 5.240033 3 4 tcp 1040 ------- 1 0.0 4.0 7 22
- 5.240033 3 4 tcp 1040 ------- 1 0.0 4.0 7 22
r 5.240041 2 3 tcp 1040 ------- 1 0.0 4.0 8 23
+ 5.240041 3 4 tcp 1040 ------- 1 0.0 4.0 8 23
- 5.240041 3 4 tcp 1040 ------- 1 0.0 4.0 8 23
r 5.240049 2 3 tcp 1040 ------- 1 0.0 4.0 9 24
+ 5.240049 3 4 tcp 1040 ------- 1 0.0 4.0 9 24
- 5.240049 3 4 tcp 1040 ------- 1 0.0 4.0 9 24
r 5.240058 2 3 tcp 1040 ------- 1 0.0 4.0 10 25
+ 5.240058 3 4 tcp 1040 ------- 1 0.0 4.0 10 25
- 5.240058 3 4 tcp 1040 ------- 1 0.0 4.0 10 25
r 5.240066 2 3 tcp 1040 ------- 1 0.0 4.0 11 26
+ 5.240066 3 4 tcp 1040 ------- 1 0.0 4.0 11 26
- 5.240066 3 4 tcp 1040 ------- 1 0.0 4.0 11 26
r 5.240074 2 3 tcp 1040 ------- 1 0.0 4.0 12 27
+ 5.240074 3 4 tcp 1040 ------- 1 0.0 4.0 12 27
- 5.240074 3 4 tcp 1040 ------- 1 0.0 4.0 12 27
r 5.240083 2 3 tcp 1040 ------- 1 0.0 4.0 13 28
+ 5.240083 3 4 tcp 1040 ------- 1 0.0 4.0 13 28
- 5.240083 3 4 tcp 1040 ------- 1 0.0 4.0 13 28
r 5.404013 3 5 tcp 1040 ------- 2 1.0 5.0 1 17
+ 5.404013 5 3 ack 40 ------- 2 5.0 1.0 1 30
- 5.404013 5 3 ack 40 ------- 2 5.0 1.0 1 30
r 5.404022 3 5 tcp 1040 ------- 2 1.0 5.0 2 18
+ 5.404022 5 3 ack 40 ------- 2 5.0 1.0 2 31
- 5.404022 5 3 ack 40 ------- 2 5.0 1.0 2 31
r 5.40403 3 5 tcp 1040 ------- 2 1.0 5.0 3 19
+ 5.40403 5 3 ack 40 ------- 2 5.0 1.0 3 32
- 5.40403 5 3 ack 40 ------- 2 5.0 1.0 3 32
r 5.404038 3 5 tcp 1040 ------- 2 1.0 5.0 4 20
+ 5.404038 5 3 ack 40 ------- 2 5.0 1.0 4 33
- 5.404038 5 3 ack 40 ------- 2 5.0 1.0 4 33
r 5.740026 3 4 tcp 1040 ------- 1 0.0 4.0 6 21
+ 5.740026 4 3 ack 40 ------- 1 4.0 0.0 6 34
- 5.740026 4 3 ack 40 ------- 1 4.0 0.0 6 34
r 5.740035 3 4 tcp 1040 ------- 1 0.0 4.0 7 22
+ 5.740035 4 3 ack 40 ------- 1 4.0 0.0 7 35
- 5.740035 4 3 ack 40 ------- 1 4.0 0.0 7 35
r 5.740043 3 4 tcp 1040 ------- 1 0.0 4.0 8 23
+ 5.740043 4 3 ack 40 ------- 1 4.0 0.0 8 36
- 5.740043 4 3 ack 40 ------- 1 4.0 0.0 8 36
r 5.740051 3 4 tcp 1040 ------- 1 0.0 4.0 9 24
+ 5.740051 4 3 ack 40 ------- 1 4.0 0.0 9 37
- 5.740051 4 3 ack 40 ------- 1 4.0 0.0 9 37
r 5.74006 3 4 tcp 1040 ------- 1 0.0 4.0 10 25
+ 5.74006 4 3 ack 40 ------- 1 4.0 0.0 10 38
- 5.74006 4 3 ack 40 ------- 1 4.0 0.0 10 38
r 5.740068 3 4 tcp 1040 ------- 1 0.0 4.0 11 26
+ 5.740068 4 3 ack 40 ------- 1 4.0 0.0 11 39
- 5.740068 4 3 ack 40 ------- 1 4.0 0.0 11 39
r 5.740076 3 4 tcp 1040 ------- 1 0.0 4.0 12 27
+ 5.740076 4 3 ack 40 ------- 1 4.0 0.0 12 40
- 5.740076 4 3 ack 40 ------- 1 4.0 0.0 12 40
r 5.740085 3 4 tcp 1040 ------- 1 0.0 4.0 13 28
+ 5.740085 4 3 ack 40 ------- 1 4.0 0.0 13 41
- 5.740085 4 3 ack 40 ------- 1 4.0 0.0 13 41
r 5.868001 5 3 ack 40 ------- 2 5.0 1.0 1 29
+ 5.868001 3 2 ack 40 ------- 2 5.0 1.0 1 29
- 5.868001 3 2 ack 40 ------- 2 5.0 1.0 1 29
r 5.936001 3 2 ack 40 ------- 2 5.0 1.0 1 29
+ 5.936001 2 1 ack 40 ------- 2 5.0 1.0 1 29
- 5.936001 2 1 ack 40 ------- 2 5.0 1.0 1 29
r 6.204014 5 3 ack 40 ------- 2 5.0 1.0 1 30
+ 6.204014 3 2 ack 40 ------- 2 5.0 1.0 1 30
- 6.204014 3 2 ack 40 ------- 2 5.0 1.0 1 30
r 6.204022 5 3 ack 40 ------- 2 5.0 1.0 2 31
+ 6.204022 3 2 ack 40 ------- 2 5.0 1.0 2 31
- 6.204022 3 2 ack 40 ------- 2 5.0 1.0 2 31
r 6.20403 5 3 ack 40 ------- 2 5.0 1.0 3 32
+ 6.20403 3 2 ack 40 ------- 2 5.0 1.0 3 32
- 6.20403 3 2 ack 40 ------- 2 5.0 1.0 3 32
r 6.204038 5 3 ack 40 ------- 2 5.0 1.0 4 33
+ 6.204038 3 2 ack 40 ------- 2 5.0 1.0 4 33
- 6.204038 3 2 ack 40 ------- 2 5.0 1.0 4 33
r 6.240026 4 3 ack 40 ------- 1 4.0 0.0 6 34
+ 6.240026 3 2 ack 40 ------- 1 4.0 0.0 6 34
- 6.240026 3 2 ack 40 ------- 1 4.0 0.0 6 34
r 6.240035 4 3 ack 40 ------- 1 4.0 0.0 7 35
+ 6.240035 3 2 ack 40 ------- 1 4.0 0.0 7 35
- 6.240035 3 2 ack 40 ------- 1 4.0 0.0 7 35
r 6.240043 4 3 ack 40 ------- 1 4.0 0.0 8 36
+ 6.240043 3 2 ack 40 ------- 1 4.0 0.0 8 36
- 6.240043 3 2 ack 40 ------- 1 4.0 0.0 8 36
r 6.240051 4 3 ack 40 ------- 1 4.0 0.0 9 37
+ 6.240051 3 2 ack 40 ------- 1 4.0 0.0 9 37
- 6.240051 3 2 ack 40 ------- 1 4.0 0.0 9 37
r 6.24006 4 3 ack 40 ------- 1 4.0 0.0 10 38
+ 6.24006 3 2 ack 40 ------- 1 4.0 0.0 10 38
- 6.24006 3 2 ack 40 ------- 1 4.0 0.0 10 38
r 6.240068 4 3 ack 40 ------- 1 4.0 0.0 11 39
+ 6.240068 3 2 ack 40 ------- 1 4.0 0.0 11 39
- 6.240068 3 2 ack 40 ------- 1 4.0 0.0 11 39
r 6.240076 4 3 ack 40 ------- 1 4.0 0.0 12 40
+ 6.240076 3 2 ack 40 ------- 1 4.0 0.0 12 40
- 6.240076 3 2 ack 40 ------- 1 4.0 0.0 12 40
r 6.240085 4 3 ack 40 ------- 1 4.0 0.0 13 41
+ 6.240085 3 2 ack 40 ------- 1 4.0 0.0 13 41
- 6.240085 3 2 ack 40 ------- 1 4.0 0.0 13 41
r 6.272014 3 2 ack 40 ------- 2 5.0 1.0 1 30
+ 6.272014 2 1 ack 40 ------- 2 5.0 1.0 1 30
- 6.272014 2 1 ack 40 ------- 2 5.0 1.0 1 30
r 6.272022 3 2 ack 40 ------- 2 5.0 1.0 2 31
+ 6.272022 2 1 ack 40 ------- 2 5.0 1.0 2 31
- 6.272022 2 1 ack 40 ------- 2 5.0 1.0 2 31
r 6.27203 3 2 ack 40 ------- 2 5.0 1.0 3 32
+ 6.27203 2 1 ack 40 ------- 2 5.0 1.0 3 32
- 6.27203 2 1 ack 40 ------- 2 5.0 1.0 3 32
r 6.272039 3 2 ack 40 ------- 2 5.0 1.0 4 33
+ 6.272039 2 1 ack 40 ------- 2 5.0 1.0 4 33
- 6.272039 2 1 ack 40 ------- 2 5.0 1.0 4 33
r 6.308027 3 2 ack 40 ------- 1 4.0 0.0 6 34
+ 6.308027 2 0 ack 40 ------- 1 4.0 0.0 6 34
- 6.308027 2 0 ack 40 ------- 1 4.0 0.0 6 34
r 6.308035 3 2 ack 40 ------- 1 4.0 0.0 7 35
+ 6.308035 2 0 ack 40 ------- 1 4.0 0.0 7 35
- 6.308035 2 0 ack 40 ------- 1 4.0 0.0 7 35
r 6.308043 3 2 ack 40 ------- 1 4.0 0.0 8 36
+ 6.308043 2 0 ack 40 ------- 1 4.0 0.0 8 36
- 6.308043 2 0 ack 40 ------- 1 4.0 0.0 8 36
r 6.308052 3 2 ack 40 ------- 1 4.0 0.0 9 37
+ 6.308052 2 0 ack 40 ------- 1 4.0 0.0 9 37
- 6.308052 2 0 ack 40 ------- 1 4.0 0.0 9 37
r 6.30806 3 2 ack 40 ------- 1 4.0 0.0 10 38
+ 6.30806 2 0 ack 40 ------- 1 4.0 0.0 10 38
- 6.30806 2 0 ack 40 ------- 1 4.0 0.0 10 38
r 6.308068 3 2 ack 40 ------- 1 4.0 0.0 11 39
+ 6.308068 2 0 ack 40 ------- 1 4.0 0.0 11 39
- 6.308068 2 0 ack 40 ------- 1 4.0 0.0 11 39
r 6.308077 3 2 ack 40 ------- 1 4.0 0.0 12 40
+ 6.308077 2 0 ack 40 ------- 1 4.0 0.0 12 40
- 6.308077 2 0 ack 40 ------- 1 4.0 0.0 12 40
r 6.308085 3 2 ack 40 ------- 1 4.0 0.0 13 41
+ 6.308085 2 0 ack 40 ------- 1 4.0 0.0 13 41
- 6.308085 2 0 ack 40 ------- 1 4.0 0.0 13 41
r 6.736001 2 1 ack 40 ------- 2 5.0 1.0 1 29
r 6.808027 2 0 ack 40 ------- 1 4.0 0.0 6 34
6.80803  0  0  4  0  ack_ 6
6.80803  0  0  4  0  cwnd_ 9.000 
+ 6.808027 0 2 tcp 1040 ------- 1 0.0 4.0 14 42
- 6.808027 0 2 tcp 1040 ------- 1 0.0 4.0 14 42
6.80803  0  0  4  0  maxseq_ 14
+ 6.808027 0 2 tcp 1040 ------- 1 0.0 4.0 15 43
6.80803  0  0  4  0  maxseq_ 15
- 6.808029 0 2 tcp 1040 ------- 1 0.0 4.0 15 43
r 6.808035 2 0 ack 40 ------- 1 4.0 0.0 7 35
6.80804  0  0  4  0  ack_ 7
6.80804  0  0  4  0  cwnd_ 10.000
+ 6.808035 0 2 tcp 1040 ------- 1 0.0 4.0 16 44
- 6.808035 0 2 tcp 1040 ------- 1 0.0 4.0 16 44
6.80804  0  0  4  0  maxseq_ 16
+ 6.808035 0 2 tcp 1040 ------- 1 0.0 4.0 17 45
6.80804  0  0  4  0  maxseq_ 17
- 6.808037 0 2 tcp 1040 ------- 1 0.0 4.0 17 45
r 6.808044 2 0 ack 40 ------- 1 4.0 0.0 8 36
6.80804  0  0  4  0  ack_ 8
6.80804  0  0  4  0  cwnd_ 11.000
+ 6.808044 0 2 tcp 1040 ------- 1 0.0 4.0 18 46
- 6.808044 0 2 tcp 1040 ------- 1 0.0 4.0 18 46
6.80804  0  0  4  0  maxseq_ 18
+ 6.808044 0 2 tcp 1040 ------- 1 0.0 4.0 19 47
6.80804  0  0  4  0  maxseq_ 19
- 6.808046 0 2 tcp 1040 ------- 1 0.0 4.0 19 47
r 6.808052 2 0 ack 40 ------- 1 4.0 0.0 9 37
6.80805  0  0  4  0  ack_ 9
6.80805  0  0  4  0  cwnd_ 12.000
+ 6.808052 0 2 tcp 1040 ------- 1 0.0 4.0 20 48
- 6.808052 0 2 tcp 1040 ------- 1 0.0 4.0 20 48
6.80805  0  0  4  0  maxseq_ 20
+ 6.808052 0 2 tcp 1040 ------- 1 0.0 4.0 21 49
6.80805  0  0  4  0  maxseq_ 21
- 6.808054 0 2 tcp 1040 ------- 1 0.0 4.0 21 49
r 6.80806 2 0 ack 40 ------- 1 4.0 0.0 10 38
6.80806  0  0  4  0  ack_ 10
6.80806  0  0  4  0  cwnd_ 13.000
+ 6.80806 0 2 tcp 1040 ------- 1 0.0 4.0 22 50
- 6.80806 0 2 tcp 1040 ------- 1 0.0 4.0 22 50
6.80806  0  0  4  0  maxseq_ 22
+ 6.80806 0 2 tcp 1040 ------- 1 0.0 4.0 23 51
6.80806  0  0  4  0  maxseq_ 23
- 6.808062 0 2 tcp 1040 ------- 1 0.0 4.0 23 51
r 6.808068 2 0 ack 40 ------- 1 4.0 0.0 11 39
6.80807  0  0  4  0  ack_ 11
6.80807  0  0  4  0  cwnd_ 14.000
+ 6.808068 0 2 tcp 1040 ------- 1 0.0 4.0 24 52
- 6.808068 0 2 tcp 1040 ------- 1 0.0 4.0 24 52
6.80807  0  0  4  0  maxseq_ 24
+ 6.808068 0 2 tcp 1040 ------- 1 0.0 4.0 25 53
6.80807  0  0  4  0  maxseq_ 25
- 6.808071 0 2 tcp 1040 ------- 1 0.0 4.0 25 53
r 6.808077 2 0 ack 40 ------- 1 4.0 0.0 12 40
6.80808  0  0  4  0  ack_ 12
6.80808  0  0  4  0  cwnd_ 15.000
+ 6.808077 0 2 tcp 1040 ------- 1 0.0 4.0 26 54
- 6.808077 0 2 tcp 1040 ------- 1 0.0 4.0 26 54
6.80808  0  0  4  0  maxseq_ 26
+ 6.808077 0 2 tcp 1040 ------- 1 0.0 4.0 27 55
6.80808  0  0  4  0  maxseq_ 27
- 6.808079 0 2 tcp 1040 ------- 1 0.0 4.0 27 55
r 6.808085 2 0 ack 40 ------- 1 4.0 0.0 13 41
6.80809  0  0  4  0  ack_ 13
6.80809  0  0  4  0  cwnd_ 16.000
+ 6.808085 0 2 tcp 1040 ------- 1 0.0 4.0 28 56
- 6.808085 0 2 tcp 1040 ------- 1 0.0 4.0 28 56
6.80809  0  0  4  0  maxseq_ 28
+ 6.808085 0 2 tcp 1040 ------- 1 0.0 4.0 29 57
6.80809  0  0  4  0  maxseq_ 29
- 6.808087 0 2 tcp 1040 ------- 1 0.0 4.0 29 57
r 7.072014 2 1 ack 40 ------- 2 5.0 1.0 1 30
r 7.072022 2 1 ack 40 ------- 2 5.0 1.0 2 31
7.07202  1  0  5  0  ack_ 2
7.07202  1  0  5  0  rtt_ 3.336 
+ 7.072022 1 2 tcp 1040 ------- 2 1.0 5.0 5 58
- 7.072022 1 2 tcp 1040 ------- 2 1.0 5.0 5 58
7.07202  1  0  5  0  maxseq_ 5
r 7.072031 2 1 ack 40 ------- 2 5.0 1.0 3 32
7.07203  1  0  5  0  ack_ 3
+ 7.072031 1 2 tcp 1040 ------- 2 1.0 5.0 6 59
- 7.072031 1 2 tcp 1040 ------- 2 1.0 5.0 6 59
7.07203  1  0  5  0  maxseq_ 6
r 7.072039 2 1 ack 40 ------- 2 5.0 1.0 4 33
7.07204  1  0  5  0  ack_ 4
+ 7.072039 1 2 tcp 1040 ------- 2 1.0 5.0 7 60
- 7.072039 1 2 tcp 1040 ------- 2 1.0 5.0 7 60
7.07204  1  0  5  0  maxseq_ 7
r 7.308029 0 2 tcp 1040 ------- 1 0.0 4.0 14 42
+ 7.308029 2 3 tcp 1040 ------- 1 0.0 4.0 14 42
- 7.308029 2 3 tcp 1040 ------- 1 0.0 4.0 14 42
r 7.308031 0 2 tcp 1040 ------- 1 0.0 4.0 15 43
+ 7.308031 2 3 tcp 1040 ------- 1 0.0 4.0 15 43
r 7.308037 0 2 tcp 1040 ------- 1 0.0 4.0 16 44
+ 7.308037 2 3 tcp 1040 ------- 1 0.0 4.0 16 44
- 7.308037 2 3 tcp 1040 ------- 1 0.0 4.0 15 43
r 7.308039 0 2 tcp 1040 ------- 1 0.0 4.0 17 45
+ 7.308039 2 3 tcp 1040 ------- 1 0.0 4.0 17 45
r 7.308046 0 2 tcp 1040 ------- 1 0.0 4.0 18 46
+ 7.308046 2 3 tcp 1040 ------- 1 0.0 4.0 18 46
- 7.308046 2 3 tcp 1040 ------- 1 0.0 4.0 16 44
r 7.308048 0 2 tcp 1040 ------- 1 0.0 4.0 19 47
+ 7.308048 2 3 tcp 1040 ------- 1 0.0 4.0 19 47
r 7.308054 0 2 tcp 1040 ------- 1 0.0 4.0 20 48
+ 7.308054 2 3 tcp 1040 ------- 1 0.0 4.0 20 48
- 7.308054 2 3 tcp 1040 ------- 1 0.0 4.0 17 45
r 7.308056 0 2 tcp 1040 ------- 1 0.0 4.0 21 49
+ 7.308056 2 3 tcp 1040 ------- 1 0.0 4.0 21 49
r 7.308062 0 2 tcp 1040 ------- 1 0.0 4.0 22 50
+ 7.308062 2 3 tcp 1040 ------- 1 0.0 4.0 22 50
- 7.308062 2 3 tcp 1040 ------- 1 0.0 4.0 18 46
r 7.308064 0 2 tcp 1040 ------- 1 0.0 4.0 23 51
+ 7.308064 2 3 tcp 1040 ------- 1 0.0 4.0 23 51
r 7.308071 0 2 tcp 1040 ------- 1 0.0 4.0 24 52
+ 7.308071 2 3 tcp 1040 ------- 1 0.0 4.0 24 52
- 7.308071 2 3 tcp 1040 ------- 1 0.0 4.0 19 47
r 7.308073 0 2 tcp 1040 ------- 1 0.0 4.0 25 53
+ 7.308073 2 3 tcp 1040 ------- 1 0.0 4.0 25 53
r 7.308079 0 2 tcp 1040 ------- 1 0.0 4.0 26 54
+ 7.308079 2 3 tcp 1040 ------- 1 0.0 4.0 26 54
- 7.308079 2 3 tcp 1040 ------- 1 0.0 4.0 20 48
r 7.308081 0 2 tcp 1040 ------- 1 0.0 4.0 27 55
+ 7.308081 2 3 tcp 1040 ------- 1 0.0 4.0 27 55
r 7.308087 0 2 tcp 1040 ------- 1 0.0 4.0 28 56
+ 7.308087 2 3 tcp 1040 ------- 1 0.0 4.0 28 56
- 7.308087 2 3 tcp 1040 ------- 1 0.0 4.0 21 49
r 7.308089 0 2 tcp 1040 ------- 1 0.0 4.0 29 57
+ 7.308089 2 3 tcp 1040 ------- 1 0.0 4.0 29 57
- 7.308096 2 3 tcp 1040 ------- 1 0.0 4.0 22 50
- 7.308104 2 3 tcp 1040 ------- 1 0.0 4.0 23 51
- 7.308112 2 3 tcp 1040 ------- 1 0.0 4.0 24 52
- 7.30812 2 3 tcp 1040 ------- 1 0.0 4.0 25 53
- 7.308129 2 3 tcp 1040 ------- 1 0.0 4.0 26 54
- 7.308137 2 3 tcp 1040 ------- 1 0.0 4.0 27 55
- 7.308145 2 3 tcp 1040 ------- 1 0.0 4.0 28 56
- 7.308154 2 3 tcp 1040 ------- 1 0.0 4.0 29 57
r 7.376037 2 3 tcp 1040 ------- 1 0.0 4.0 14 42
+ 7.376037 3 4 tcp 1040 ------- 1 0.0 4.0 14 42
- 7.376037 3 4 tcp 1040 ------- 1 0.0 4.0 14 42
r 7.376046 2 3 tcp 1040 ------- 1 0.0 4.0 15 43
+ 7.376046 3 4 tcp 1040 ------- 1 0.0 4.0 15 43
- 7.376046 3 4 tcp 1040 ------- 1 0.0 4.0 15 43
r 7.376054 2 3 tcp 1040 ------- 1 0.0 4.0 16 44
+ 7.376054 3 4 tcp 1040 ------- 1 0.0 4.0 16 44
- 7.376054 3 4 tcp 1040 ------- 1 0.0 4.0 16 44
r 7.376062 2 3 tcp 1040 ------- 1 0.0 4.0 17 45
+ 7.376062 3 4 tcp 1040 ------- 1 0.0 4.0 17 45
- 7.376062 3 4 tcp 1040 ------- 1 0.0 4.0 17 45
r 7.376071 2 3 tcp 1040 ------- 1 0.0 4.0 18 46
+ 7.376071 3 4 tcp 1040 ------- 1 0.0 4.0 18 46
- 7.376071 3 4 tcp 1040 ------- 1 0.0 4.0 18 46
r 7.376079 2 3 tcp 1040 ------- 1 0.0 4.0 19 47
+ 7.376079 3 4 tcp 1040 ------- 1 0.0 4.0 19 47
- 7.376079 3 4 tcp 1040 ------- 1 0.0 4.0 19 47
r 7.376087 2 3 tcp 1040 ------- 1 0.0 4.0 20 48
+ 7.376087 3 4 tcp 1040 ------- 1 0.0 4.0 20 48
- 7.376087 3 4 tcp 1040 ------- 1 0.0 4.0 20 48
r 7.376096 2 3 tcp 1040 ------- 1 0.0 4.0 21 49
+ 7.376096 3 4 tcp 1040 ------- 1 0.0 4.0 21 49
- 7.376096 3 4 tcp 1040 ------- 1 0.0 4.0 21 49
r 7.376104 2 3 tcp 1040 ------- 1 0.0 4.0 22 50
+ 7.376104 3 4 tcp 1040 ------- 1 0.0 4.0 22 50
- 7.376104 3 4 tcp 1040 ------- 1 0.0 4.0 22 50
r 7.376112 2 3 tcp 1040 ------- 1 0.0 4.0 23 51
+ 7.376112 3 4 tcp 1040 ------- 1 0.0 4.0 23 51
- 7.376112 3 4 tcp 1040 ------- 1 0.0 4.0 23 51
r 7.37612 2 3 tcp 1040 ------- 1 0.0 4.0 24 52
+ 7.37612 3 4 tcp 1040 ------- 1 0.0 4.0 24 52
- 7.37612 3 4 tcp 1040 ------- 1 0.0 4.0 24 52
r 7.376129 2 3 tcp 1040 ------- 1 0.0 4.0 25 53
+ 7.376129 3 4 tcp 1040 ------- 1 0.0 4.0 25 53
- 7.376129 3 4 tcp 1040 ------- 1 0.0 4.0 25 53
r 7.376137 2 3 tcp 1040 ------- 1 0.0 4.0 26 54
+ 7.376137 3 4 tcp 1040 ------- 1 0.0 4.0 26 54
- 7.376137 3 4 tcp 1040 ------- 1 0.0 4.0 26 54
r 7.376145 2 3 tcp 1040 ------- 1 0.0 4.0 27 55
+ 7.376145 3 4 tcp 1040 ------- 1 0.0 4.0 27 55
- 7.376145 3 4 tcp 1040 ------- 1 0.0 4.0 27 55
r 7.376154 2 3 tcp 1040 ------- 1 0.0 4.0 28 56
+ 7.376154 3 4 tcp 1040 ------- 1 0.0 4.0 28 56
- 7.376154 3 4 tcp 1040 ------- 1 0.0 4.0 28 56
r 7.376162 2 3 tcp 1040 ------- 1 0.0 4.0 29 57
+ 7.376162 3 4 tcp 1040 ------- 1 0.0 4.0 29 57
- 7.376162 3 4 tcp 1040 ------- 1 0.0 4.0 29 57
r 7.872024 1 2 tcp 1040 ------- 2 1.0 5.0 5 58
+ 7.872024 2 3 tcp 1040 ------- 2 1.0 5.0 5 58
- 7.872024 2 3 tcp 1040 ------- 2 1.0 5.0 5 58
r 7.872033 1 2 tcp 1040 ------- 2 1.0 5.0 6 59
+ 7.872033 2 3 tcp 1040 ------- 2 1.0 5.0 6 59
- 7.872033 2 3 tcp 1040 ------- 2 1.0 5.0 6 59
r 7.872041 1 2 tcp 1040 ------- 2 1.0 5.0 7 60
+ 7.872041 2 3 tcp 1040 ------- 2 1.0 5.0 7 60
- 7.872041 2 3 tcp 1040 ------- 2 1.0 5.0 7 60
r 7.876039 3 4 tcp 1040 ------- 1 0.0 4.0 14 42
+ 7.876039 4 3 ack 40 ------- 1 4.0 0.0 14 61
- 7.876039 4 3 ack 40 ------- 1 4.0 0.0 14 61
r 7.876048 3 4 tcp 1040 ------- 1 0.0 4.0 15 43
+ 7.876048 4 3 ack 40 ------- 1 4.0 0.0 15 62
- 7.876048 4 3 ack 40 ------- 1 4.0 0.0 15 62
r 7.876056 3 4 tcp 1040 ------- 1 0.0 4.0 16 44
+ 7.876056 4 3 ack 40 ------- 1 4.0 0.0 16 63
- 7.876056 4 3 ack 40 ------- 1 4.0 0.0 16 63
r 7.876064 3 4 tcp 1040 ------- 1 0.0 4.0 17 45
+ 7.876064 4 3 ack 40 ------- 1 4.0 0.0 17 64
- 7.876064 4 3 ack 40 ------- 1 4.0 0.0 17 64
r 7.876073 3 4 tcp 1040 ------- 1 0.0 4.0 18 46
+ 7.876073 4 3 ack 40 ------- 1 4.0 0.0 18 65
- 7.876073 4 3 ack 40 ------- 1 4.0 0.0 18 65
r 7.876081 3 4 tcp 1040 ------- 1 0.0 4.0 19 47
+ 7.876081 4 3 ack 40 ------- 1 4.0 0.0 19 66
- 7.876081 4 3 ack 40 ------- 1 4.0 0.0 19 66
r 7.876089 3 4 tcp 1040 ------- 1 0.0 4.0 20 48
+ 7.876089 4 3 ack 40 ------- 1 4.0 0.0 20 67
- 7.876089 4 3 ack 40 ------- 1 4.0 0.0 20 67
r 7.876098 3 4 tcp 1040 ------- 1 0.0 4.0 21 49
+ 7.876098 4 3 ack 40 ------- 1 4.0 0.0 21 68
- 7.876098 4 3 ack 40 ------- 1 4.0 0.0 21 68
r 7.876106 3 4 tcp 1040 ------- 1 0.0 4.0 22 50
+ 7.876106 4 3 ack 40 ------- 1 4.0 0.0 22 69
- 7.876106 4 3 ack 40 ------- 1 4.0 0.0 22 69
r 7.876114 3 4 tcp 1040 ------- 1 0.0 4.0 23 51
+ 7.876114 4 3 ack 40 ------- 1 4.0 0.0 23 70
- 7.876114 4 3 ack 40 ------- 1 4.0 0.0 23 70
r 7.876123 3 4 tcp 1040 ------- 1 0.0 4.0 24 52
+ 7.876123 4 3 ack 40 ------- 1 4.0 0.0 24 71
- 7.876123 4 3 ack 40 ------- 1 4.0 0.0 24 71
r 7.876131 3 4 tcp 1040 ------- 1 0.0 4.0 25 53
+ 7.876131 4 3 ack 40 ------- 1 4.0 0.0 25 72
- 7.876131 4 3 ack 40 ------- 1 4.0 0.0 25 72
r 7.876139 3 4 tcp 1040 ------- 1 0.0 4.0 26 54
+ 7.876139 4 3 ack 40 ------- 1 4.0 0.0 26 73
- 7.876139 4 3 ack 40 ------- 1 4.0 0.0 26 73
r 7.876148 3 4 tcp 1040 ------- 1 0.0 4.0 27 55
+ 7.876148 4 3 ack 40 ------- 1 4.0 0.0 27 74
- 7.876148 4 3 ack 40 ------- 1 4.0 0.0 27 74
r 7.876156 3 4 tcp 1040 ------- 1 0.0 4.0 28 56
+ 7.876156 4 3 ack 40 ------- 1 4.0 0.0 28 75
- 7.876156 4 3 ack 40 ------- 1 4.0 0.0 28 75
r 7.876164 3 4 tcp 1040 ------- 1 0.0 4.0 29 57
+ 7.876164 4 3 ack 40 ------- 1 4.0 0.0 29 76
- 7.876164 4 3 ack 40 ------- 1 4.0 0.0 29 76
r 7.940033 2 3 tcp 1040 ------- 2 1.0 5.0 5 58
+ 7.940033 3 5 tcp 1040 ------- 2 1.0 5.0 5 58
- 7.940033 3 5 tcp 1040 ------- 2 1.0 5.0 5 58
r 7.940041 2 3 tcp 1040 ------- 2 1.0 5.0 6 59
+ 7.940041 3 5 tcp 1040 ------- 2 1.0 5.0 6 59
- 7.940041 3 5 tcp 1040 ------- 2 1.0 5.0 6 59
r 7.940049 2 3 tcp 1040 ------- 2 1.0 5.0 7 60
+ 7.940049 3 5 tcp 1040 ------- 2 1.0 5.0 7 60
- 7.940049 3 5 tcp 1040 ------- 2 1.0 5.0 7 60
r 8.376039 4 3 ack 40 ------- 1 4.0 0.0 14 61
+ 8.376039 3 2 ack 40 ------- 1 4.0 0.0 14 61
- 8.376039 3 2 ack 40 ------- 1 4.0 0.0 14 61
r 8.376048 4 3 ack 40 ------- 1 4.0 0.0 15 62
+ 8.376048 3 2 ack 40 ------- 1 4.0 0.0 15 62
- 8.376048 3 2 ack 40 ------- 1 4.0 0.0 15 62
r 8.376056 4 3 ack 40 ------- 1 4.0 0.0 16 63
+ 8.376056 3 2 ack 40 ------- 1 4.0 0.0 16 63
- 8.376056 3 2 ack 40 ------- 1 4.0 0.0 16 63
r 8.376064 4 3 ack 40 ------- 1 4.0 0.0 17 64
+ 8.376064 3 2 ack 40 ------- 1 4.0 0.0 17 64
- 8.376064 3 2 ack 40 ------- 1 4.0 0.0 17 64