0.00000  0  0  4  0  cwnd_ 2.000 
0.00000  0  0  4  0  ssthresh_ 20
0.00000  0  0  4  0  ack_ -1
0.00000  0  0  4  0  maxseq_ -1
0.00000  0  0  4  0  rtt_ 0.000 
0.00000  1  0  5  0  cwnd_ 2.000 
0.00000  1  0  5  0  ssthresh_ 20
0.00000  1  0  5  0  ack_ -1
0.00000  1  0  5  0  maxseq_ -1
0.00000  1  0  5  0  rtt_ 0.000 
0.00000  0  0  4  0  ssthresh_ 756
0.00000  1  0  5  0  ssthresh_ 856
+ 0.7 0 2 tcp 40 ------- 1 0.0 4.0 0 0
- 0.7 0 2 tcp 40 ------- 1 0.0 4.0 0 0
0.70000  0  0  4  0  maxseq_ 0
+ 0.7 0 2 tcp 1040 ------- 1 0.0 4.0 1 1
0.70000  0  0  4  0  maxseq_ 1
+ 0.7 1 2 tcp 40 ------- 2 1.0 5.0 0 2
- 0.7 1 2 tcp 40 ------- 2 1.0 5.0 0 2
0.70000  1  0  5  0  maxseq_ 0
+ 0.7 1 2 tcp 1040 ------- 2 1.0 5.0 1 3
0.70000  1  0  5  0  maxseq_ 1
- 0.7 0 2 tcp 1040 ------- 1 0.0 4.0 1 1
- 0.7 1 2 tcp 1040 ------- 2 1.0 5.0 1 3
r 1.2 0 2 tcp 40 ------- 1 0.0 4.0 0 0
+ 1.2 2 3 tcp 40 ------- 1 0.0 4.0 0 0
- 1.2 2 3 tcp 40 ------- 1 0.0 4.0 0 0
r 1.200002 0 2 tcp 1040 ------- 1 0.0 4.0 1 1
+ 1.200002 2 3 tcp 1040 ------- 1 0.0 4.0 1 1
- 1.200002 2 3 tcp 1040 ------- 1 0.0 4.0 1 1
r 1.262 2 3 tcp 40 ------- 1 0.0 4.0 0 0
+ 1.262 3 4 tcp 40 ------- 1 0.0 4.0 0 0
- 1.262 3 4 tcp 40 ------- 1 0.0 4.0 0 0
r 1.26201 2 3 tcp 1040 ------- 1 0.0 4.0 1 1
+ 1.26201 3 4 tcp 1040 ------- 1 0.0 4.0 1 1
- 1.26201 3 4 tcp 1040 ------- 1 0.0 4.0 1 1
r 1.5 1 2 tcp 40 ------- 2 1.0 5.0 0 2
+ 1.5 2 3 tcp 40 ------- 2 1.0 5.0 0 2
- 1.5 2 3 tcp 40 ------- 2 1.0 5.0 0 2
r 1.500002 1 2 tcp 1040 ------- 2 1.0 5.0 1 3
+ 1.500002 2 3 tcp 1040 ------- 2 1.0 5.0 1 3
- 1.500002 2 3 tcp 1040 ------- 2 1.0 5.0 1 3
r 1.562 2 3 tcp 40 ------- 2 1.0 5.0 0 2
+ 1.562 3 5 tcp 40 ------- 2 1.0 5.0 0 2
- 1.562 3 5 tcp 40 ------- 2 1.0 5.0 0 2
r 1.56201 2 3 tcp 1040 ------- 2 1.0 5.0 1 3
+ 1.56201 3 5 tcp 1040 ------- 2 1.0 5.0 1 3
- 1.56201 3 5 tcp 1040 ------- 2 1.0 5.0 1 3
r 1.762 3 4 tcp 40 ------- 1 0.0 4.0 0 0
+ 1.762 4 3 ack 40 ------- 1 4.0 0.0 0 4
- 1.762 4 3 ack 40 ------- 1 4.0 0.0 0 4
r 1.762013 3 4 tcp 1040 ------- 1 0.0 4.0 1 1
+ 1.762013 4 3 ack 40 ------- 1 4.0 0.0 1 5
- 1.762013 4 3 ack 40 ------- 1 4.0 0.0 1 5
r 2.262001 4 3 ack 40 ------- 1 4.0 0.0 0 4
+ 2.262001 3 2 ack 40 ------- 1 4.0 0.0 0 4
- 2.262001 3 2 ack 40 ------- 1 4.0 0.0 0 4
r 2.262013 4 3 ack 40 ------- 1 4.0 0.0 1 5
+ 2.262013 3 2 ack 40 ------- 1 4.0 0.0 1 5
- 2.262013 3 2 ack 40 ------- 1 4.0 0.0 1 5
r 2.324001 3 2 ack 40 ------- 1 4.0 0.0 0 4
+ 2.324001 2 0 ack 40 ------- 1 4.0 0.0 0 4
- 2.324001 2 0 ack 40 ------- 1 4.0 0.0 0 4
r 2.324013 3 2 ack 40 ------- 1 4.0 0.0 1 5
+ 2.324013 2 0 ack 40 ------- 1 4.0 0.0 1 5
- 2.324013 2 0 ack 40 ------- 1 4.0 0.0 1 5
r 2.362 3 5 tcp 40 ------- 2 1.0 5.0 0 2
+ 2.362 5 3 ack 40 ------- 2 5.0 1.0 0 6
- 2.362 5 3 ack 40 ------- 2 5.0 1.0 0 6
r 2.362013 3 5 tcp 1040 ------- 2 1.0 5.0 1 3
+ 2.362013 5 3 ack 40 ------- 2 5.0 1.0 1 7
- 2.362013 5 3 ack 40 ------- 2 5.0 1.0 1 7
r 2.824001 2 0 ack 40 ------- 1 4.0 0.0 0 4
2.82400  0  0  4  0  ack_ 0
2.82400  0  0  4  0  rtt_ 2.124 
2.82400  0  0  4  0  cwnd_ 3.000 
+ 2.824001 0 2 tcp 1040 ------- 1 0.0 4.0 2 8
- 2.824001 0 2 tcp 1040 ------- 1 0.0 4.0 2 8
2.82400  0  0  4  0  maxseq_ 2
+ 2.824001 0 2 tcp 1040 ------- 1 0.0 4.0 3 9
2.82400  0  0  4  0  maxseq_ 3
- 2.824003 0 2 tcp 1040 ------- 1 0.0 4.0 3 9
r 2.824013 2 0 ack 40 ------- 1 4.0 0.0 1 5
2.82401  0  0  4  0  ack_ 1
2.82401  0  0  4  0  cwnd_ 4.000 
+ 2.824013 0 2 tcp 1040 ------- 1 0.0 4.0 4 10
- 2.824013 0 2 tcp 1040 ------- 1 0.0 4.0 4 10
2.82401  0  0  4  0  maxseq_ 4
+ 2.824013 0 2 tcp 1040 ------- 1 0.0 4.0 5 11
2.82401  0  0  4  0  maxseq_ 5
- 2.824015 0 2 tcp 1040 ------- 1 0.0 4.0 5 11
r 3.162001 5 3 ack 40 ------- 2 5.0 1.0 0 6
+ 3.162001 3 2 ack 40 ------- 2 5.0 1.0 0 6
- 3.162001 3 2 ack 40 ------- 2 5.0 1.0 0 6
r 3.162013 5 3 ack 40 ------- 2 5.0 1.0 1 7
+ 3.162013 3 2 ack 40 ------- 2 5.0 1.0 1 7
- 3.162013 3 2 ack 40 ------- 2 5.0 1.0 1 7
r 3.224001 3 2 ack 40 ------- 2 5.0 1.0 0 6
+ 3.224001 2 1 ack 40 ------- 2 5.0 1.0 0 6
- 3.224001 2 1 ack 40 ------- 2 5.0 1.0 0 6
r 3.224013 3 2 ack 40 ------- 2 5.0 1.0 1 7
+ 3.224013 2 1 ack 40 ------- 2 5.0 1.0 1 7
- 3.224013 2 1 ack 40 ------- 2 5.0 1.0 1 7
r 3.324003 0 2 tcp 1040 ------- 1 0.0 4.0 2 8
+ 3.324003 2 3 tcp 1040 ------- 1 0.0 4.0 2 8
- 3.324003 2 3 tcp 1040 ------- 1 0.0 4.0 2 8
r 3.324005 0 2 tcp 1040 ------- 1 0.0 4.0 3 9
+ 3.324005 2 3 tcp 1040 ------- 1 0.0 4.0 3 9
- 3.324011 2 3 tcp 1040 ------- 1 0.0 4.0 3 9
r 3.324015 0 2 tcp 1040 ------- 1 0.0 4.0 4 10
+ 3.324015 2 3 tcp 1040 ------- 1 0.0 4.0 4 10
r 3.324017 0 2 tcp 1040 ------- 1 0.0 4.0 5 11
+ 3.324017 2 3 tcp 1040 ------- 1 0.0 4.0 5 11
- 3.32402 2 3 tcp 1040 ------- 1 0.0 4.0 4 10
- 3.324028 2 3 tcp 1040 ------- 1 0.0 4.0 5 11
r 3.386011 2 3 tcp 1040 ------- 1 0.0 4.0 2 8
+ 3.386011 3 4 tcp 1040 ------- 1 0.0 4.0 2 8
- 3.386011 3 4 tcp 1040 ------- 1 0.0 4.0 2 8
r 3.38602 2 3 tcp 1040 ------- 1 0.0 4.0 3 9
+ 3.38602 3 4 tcp 1040 ------- 1 0.0 4.0 3 9
- 3.38602 3 4 tcp 1040 ------- 1 0.0 4.0 3 9
r 3.386028 2 3 tcp 1040 ------- 1 0.0 4.0 4 10
+ 3.386028 3 4 tcp 1040 ------- 1 0.0 4.0 4 10
- 3.386028 3 4 tcp 1040 ------- 1 0.0 4.0 4 10
r 3.386036 2 3 tcp 1040 ------- 1 0.0 4.0 5 11
+ 3.386036 3 4 tcp 1040 ------- 1 0.0 4.0 5 11
- 3.386036 3 4 tcp 1040 ------- 1 0.0 4.0 5 11
3.70000  1  0  5  0  cwnd_ 1.000 
3.70000  1  0  5  0  ssthresh_ 2
+ 3.7 1 2 tcp 40 ---A--- 2 1.0 5.0 0 12
- 3.7 1 2 tcp 40 ---A--- 2 1.0 5.0 0 12
r 3.886013 3 4 tcp 1040 ------- 1 0.0 4.0 2 8
+ 3.886013 4 3 ack 40 ------- 1 4.0 0.0 2 13
- 3.886013 4 3 ack 40 ------- 1 4.0 0.0 2 13
r 3.886022 3 4 tcp 1040 ------- 1 0.0 4.0 3 9
+ 3.886022 4 3 ack 40 ------- 1 4.0 0.0 3 14
- 3.886022 4 3 ack 40 ------- 1 4.0 0.0 3 14
r 3.88603 3 4 tcp 1040 ------- 1 0.0 4.0 4 10
+ 3.88603 4 3 ack 40 ------- 1 4.0 0.0 4 15
- 3.88603 4 3 ack 40 ------- 1 4.0 0.0 4 15
r 3.886038 3 4 tcp 1040 ------- 1 0.0 4.0 5 11
+ 3.886038 4 3 ack 40 ------- 1 4.0 0.0 5 16
- 3.886038 4 3 ack 40 ------- 1 4.0 0.0 5 16
r 4.024001 2 1 ack 40 ------- 2 5.0 1.0 0 6
4.02400  1  0  5  0  ack_ 0
4.02400  1  0  5  0  cwnd_ 2.000 
+ 4.024001 1 2 tcp 1040 ------- 2 1.0 5.0 1 17
- 4.024001 1 2 tcp 1040 ------- 2 1.0 5.0 1 17
+ 4.024001 1 2 tcp 1040 ------- 2 1.0 5.0 2 18
4.02400  1  0  5  0  maxseq_ 2
- 4.024003 1 2 tcp 1040 ------- 2 1.0 5.0 2 18
r 4.024013 2 1 ack 40 ------- 2 5.0 1.0 1 7
4.02401  1  0  5  0  ack_ 1
4.02401  1  0  5  0  cwnd_ 3.000 
+ 4.024013 1 2 tcp 1040 ------- 2 1.0 5.0 3 19
- 4.024013 1 2 tcp 1040 ------- 2 1.0 5.0 3 19
4.02401  1  0  5  0  maxseq_ 3
+ 4.024013 1 2 tcp 1040 ------- 2 1.0 5.0 4 20
4.02401  1  0  5  0  maxseq_ 4
- 4.024015 1 2 tcp 1040 ------- 2 1.0 5.0 4 20
r 4.386014 4 3 ack 40 ------- 1 4.0 0.0 2 13
+ 4.386014 3 2 ack 40 ------- 1 4.0 0.0 2 13
- 4.386014 3 2 ack 40 ------- 1 4.0 0.0 2 13
r 4.386022 4 3 ack 40 ------- 1 4.0 0.0 3 14
+ 4.386022 3 2 ack 40 ------- 1 4.0 0.0 3 14
- 4.386022 3 2 ack 40 ------- 1 4.0 0.0 3 14
r 4.38603 4 3 ack 40 ------- 1 4.0 0.0 4 15
+ 4.38603 3 2 ack 40 ------- 1 4.0 0.0 4 15
- 4.38603 3 2 ack 40 ------- 1 4.0 0.0 4 15
r 4.386038 4 3 ack 40 ------- 1 4.0 0.0 5 16
+ 4.386038 3 2 ack 40 ------- 1 4.0 0.0 5 16
- 4.386038 3 2 ack 40 ------- 1 4.0 0.0 5 16
r 4.448014 3 2 ack 40 ------- 1 4.0 0.0 2 13
+ 4.448014 2 0 ack 40 ------- 1 4.0 0.0 2 13
- 4.448014 2 0 ack 40 ------- 1 4.0 0.0 2 13
r 4.448022 3 2 ack 40 ------- 1 4.0 0.0 3 14
+ 4.448022 2 0 ack 40 ------- 1 4.0 0.0 3 14
- 4.448022 2 0 ack 40 ------- 1 4.0 0.0 3 14
r 4.44803 3 2 ack 40 ------- 1 4.0 0.0 4 15
+ 4.44803 2 0 ack 40 ------- 1 4.0 0.0 4 15
- 4.44803 2 0 ack 40 ------- 1 4.0 0.0 4 15
r 4.448039 3 2 ack 40 ------- 1 4.0 0.0 5 16
+ 4.448039 2 0 ack 40 ------- 1 4.0 0.0 5 16
- 4.448039 2 0 ack 40 ------- 1 4.0 0.0 5 16
r 4.5 1 2 tcp 40 ---A--- 2 1.0 5.0 0 12
+ 4.5 2 3 tcp 40 ---A--- 2 1.0 5.0 0 12
- 4.5 2 3 tcp 40 ---A--- 2 1.0 5.0 0 12
r 4.562 2 3 tcp 40 ---A--- 2 1.0 5.0 0 12
+ 4.562 3 5 tcp 40 ---A--- 2 1.0 5.0 0 12
- 4.562 3 5 tcp 40 ---A--- 2 1.0 5.0 0 12
r 4.824003 1 2 tcp 1040 ------- 2 1.0 5.0 1 17
+ 4.824003 2 3 tcp 1040 ------- 2 1.0 5.0 1 17
- 4.824003 2 3 tcp 1040 ------- 2 1.0 5.0 1 17
r 4.824005 1 2 tcp 1040 ------- 2 1.0 5.0 2 18
+ 4.824005 2 3 tcp 1040 ------- 2 1.0 5.0 2 18
- 4.824011 2 3 tcp 1040 ------- 2 1.0 5.0 2 18
r 4.824015 1 2 tcp 1040 ------- 2 1.0 5.0 3 19
+ 4.824015 2 3 tcp 1040 ------- 2 1.0 5.0 3 19
r 4.824017 1 2 tcp 1040 ------- 2 1.0 5.0 4 20
+ 4.824017 2 3 tcp 1040 ------- 2 1.0 5.0 4 20
- 4.82402 2 3 tcp 1040 ------- 2 1.0 5.0 3 19
- 4.824028 2 3 tcp 1040 ------- 2 1.0 5.0 4 20
r 4.886011 2 3 tcp 1040 ------- 2 1.0 5.0 1 17
+ 4.886011 3 5 tcp 1040 ------- 2 1.0 5.0 1 17
- 4.886011 3 5 tcp 1040 ------- 2 1.0 5.0 1 17
r 4.88602 2 3 tcp 1040 ------- 2 1.0 5.0 2 18
+ 4.88602 3 5 tcp 1040 ------- 2 1.0 5.0 2 18
- 4.88602 3 5 tcp 1040 ------- 2 1.0 5.0 2 18
r 4.886028 2 3 tcp 1040 ------- 2 1.0 5.0 3 19
+ 4.886028 3 5 tcp 1040 ------- 2 1.0 5.0 3 19
- 4.886028 3 5 tcp 1040 ------- 2 1.0 5.0 3 19
r 4.886036 2 3 tcp 1040 ------- 2 1.0 5.0 4 20
+ 4.886036 3 5 tcp 1040 ------- 2 1.0 5.0 4 20
- 4.886036 3 5 tcp 1040 ------- 2 1.0 5.0 4 20
r 4.948014 2 0 ack 40 ------- 1 4.0 0.0 2 13
4.94801  0  0  4  0  ack_ 2
4.94801  0  0  4  0  cwnd_ 5.000 
+ 4.948014 0 2 tcp 1040 ------- 1 0.0 4.0 6 21
- 4.948014 0 2 tcp 1040 ------- 1 0.0 4.0 6 21
4.94801  0  0  4  0  maxseq_ 6
+ 4.948014 0 2 tcp 1040 ------- 1 0.0 4.0 7 22
4.94801  0  0  4  0  maxseq_ 7
- 4.948016 0 2 tcp 1040 ------- 1 0.0 4.0 7 22
r 4.948022 2 0 ack 40 ------- 1 4.0 0.0 3 14
4.94802  0  0  4  0  ack_ 3
4.94802  0  0  4  0  cwnd_ 6.000 
+ 4.948022 0 2 tcp 1040 ------- 1 0.0 4.0 8 23
- 4.948022 0 2 tcp 1040 ------- 1 0.0 4.0 8 23
4.94802  0  0  4  0  maxseq_ 8
+ 4.948022 0 2 tcp 1040 ------- 1 0.0 4.0 9 24
4.94802  0  0  4  0  maxseq_ 9
- 4.948024 0 2 tcp 1040 ------- 1 0.0 4.0 9 24
r 4.948031 2 0 ack 40 ------- 1 4.0 0.0 4 15
4.94803  0  0  4  0  ack_ 4
4.94803  0  0  4  0  cwnd_ 7.000 
+ 4.948031 0 2 tcp 1040 ------- 1 0.0 4.0 10 25
- 4.948031 0 2 tcp 1040 ------- 1 0.0 4.0 10 25
4.94803  0  0  4  0  maxseq_ 10
+ 4.948031 0 2 tcp 1040 ------- 1 0.0 4.0 11 26
4.94803  0  0  4  0  maxseq_ 11
- 4.948033 0 2 tcp 1040 ------- 1 0.0 4.0 11 26
r 4.948039 2 0 ack 40 ------- 1 4.0 0.0 5 16
4.94804  0  0  4  0  ack_ 5
4.94804  0  0  4  0  cwnd_ 8.000 
+ 4.948039 0 2 tcp 1040 ------- 1 0.0 4.0 12 27
- 4.948039 0 2 tcp 1040 ------- 1 0.0 4.0 12 27
4.94804  0  0  4  0  maxseq_ 12
+ 4.948039 0 2 tcp 1040 ------- 1 0.0 4.0 13 28
4.94804  0  0  4  0  maxseq_ 13
- 4.948041 0 2 tcp 1040 ------- 1 0.0 4.0 13 28
r 5.362 3 5 tcp 40 ---A--- 2 1.0 5.0 0 12
+ 5.362 5 3 ack 40 ------- 2 5.0 1.0 1 29
- 5.362 5 3 ack 40 ------- 2 5.0 1.0 1 29
r 5.448016 0 2 tcp 1040 ------- 1 0.0 4.0 6 21
+ 5.448016 2 3 tcp 1040 ------- 1 0.0 4.0 6 21
- 5.448016 2 3 tcp 1040 ------- 1 0.0 4.0 6 21
r 5.448018 0 2 tcp 1040 ------- 1 0.0 4.0 7 22
+ 5.448018 2 3 tcp 1040 ------- 1 0.0 4.0 7 22
r 5.448024 0 2 tcp 1040 ------- 1 0.0 4.0 8 23
+ 5.448024 2 3 tcp 1040 ------- 1 0.0 4.0 8 23
- 5.448024 2 3 tcp 1040 ------- 1 0.0 4.0 7 22
r 5.448026 0 2 tcp 1040 ------- 1 0.0 4.0 9 24
+ 5.448026 2 3 tcp 1040 ------- 1 0.0 4.0 9 24
r 5.448033 0 2 tcp 1040 ------- 1 0.0 4.0 10 25
+ 5.448033 2 3 tcp 1040 ------- 1 0.0 4.0 10 25
- 5.448033 2 3 tcp 1040 ------- 1 0.0 4.0 8 23
r 5.448035 0 2 tcp 1040 ------- 1 0.0 4.0 11 26
+ 5.448035 2 3 tcp 1040 ------- 1 0.0 4.0 11 26
r 5.448041 0 2 tcp 1040 ------- 1 0.0 4.0 12 27
+ 5.448041 2 3 tcp 1040 ------- 1 0.0 4.0 12 27
d 5.448041 2 3 tcp 1040 ------- 1 0.0 4.0 12 27
- 5.448041 2 3 tcp 1040 ------- 1 0.0 4.0 9 24
r 5.448043 0 2 tcp 1040 ------- 1 0.0 4.0 13 28
+ 5.448043 2 3 tcp 1040 ------- 1 0.0 4.0 13 28
- 5.448049 2 3 tcp 1040 ------- 1 0.0 4.0 10 25
- 5.448058 2 3 tcp 1040 ------- 1 0.0 4.0 11 26
- 5.448066 2 3 tcp 1040 ------- 1 0.0 4.0 13 28
r 5.510024 2 3 tcp 1040 ------- 1 0.0 4.0 6 21
+ 5.510024 3 4 tcp 1040 ------- 1 0.0 4.0 6 21
- 5.510024 3 4 tcp 1040 ------- 1 0.0 4.0 6 21
r 5.510033 2 3 tcp 1040 ------- 1 0.0 4.0 7 22
+ 5.510033 3 4 tcp 1040 ------- 1 0.0 4.0 7 22
- 5.510033 3 4 tcp 1040 ------- 1 0.0 4.0 7 22
r 5.510041 2 3 tcp 1040 ------- 1 0.0 4.0 8 23
+ 5.510041 3 4 tcp 1040 ------- 1 0.0 4.0 8 23
- 5.510041 3 4 tcp 1040 ------- 1 0.0 4.0 8 23
r 5.510049 2 3 tcp 1040 ------- 1 0.0 4.0 9 24
+ 5.510049 3 4 tcp 1040 ------- 1 0.0 4.0 9 24
- 5.510049 3 4 tcp 1040 ------- 1 0.0 4.0 9 24
r 5.510058 2 3 tcp 1040 ------- 1 0.0 4.0 10 25
+ 5.510058 3 4 tcp 1040 ------- 1 0.0 4.0 10 25
- 5.510058 3 4 tcp 1040 ------- 1 0.0 4.0 10 25
r 5.510066 2 3 tcp 1040 ------- 1 0.0 4.0 11 26
+ 5.510066 3 4 tcp 1040 ------- 1 0.0 4.0 11 26
- 5.510066 3 4 tcp 1040 ------- 1 0.0 4.0 11 26
r 5.510074 2 3 tcp 1040 ------- 1 0.0 4.0 13 28
+ 5.510074 3 4 tcp 1040 ------- 1 0.0 4.0 13 28
- 5.510074 3 4 tcp 1040 ------- 1 0.0 4.0 13 28
r 5.686013 3 5 tcp 1040 ------- 2 1.0 5.0 1 17
+ 5.686013 5 3 ack 40 ------- 2 5.0 1.0 1 30
- 5.686013 5 3 ack 40 ------- 2 5.0 1.0 1 30
r 5.686022 3 5 tcp 1040 ------- 2 1.0 5.0 2 18
+ 5.686022 5 3 ack 40 ------- 2 5.0 1.0 2 31
- 5.686022 5 3 ack 40 ------- 2 5.0 1.0 2 31
r 5.68603 3 5 tcp 1040 ------- 2 1.0 5.0 3 19
+ 5.68603 5 3 ack 40 ------- 2 5.0 1.0 3 32
- 5.68603 5 3 ack 40 ------- 2 5.0 1.0 3 32
r 5.686038 3 5 tcp 1040 ------- 2 1.0 5.0 4 20
+ 5.686038 5 3 ack 40 ------- 2 5.0 1.0 4 33
- 5.686038 5 3 ack 40 ------- 2 5.0 1.0 4 33
r 6.010026 3 4 tcp 1040 ------- 1 0.0 4.0 6 21
+ 6.010026 4 3 ack 40 ------- 1 4.0 0.0 6 34
- 6.010026 4 3 ack 40 ------- 1 4.0 0.0 6 34
r 6.010035 3 4 tcp 1040 ------- 1 0.0 4.0 7 22
+ 6.010035 4 3 ack 40 ------- 1 4.0 0.0 7 35
- 6.010035 4 3 ack 40 ------- 1 4.0 0.0 7 35
r 6.010043 3 4 tcp 1040 ------- 1 0.0 4.0 8 23
+ 6.010043 4 3 ack 40 ------- 1 4.0 0.0 8 36
- 6.010043 4 3 ack 40 ------- 1 4.0 0.0 8 36
r 6.010051 3 4 tcp 1040 ------- 1 0.0 4.0 9 24
+ 6.010051 4 3 ack 40 ------- 1 4.0 0.0 9 37
- 6.010051 4 3 ack 40 ------- 1 4.0 0.0 9 37
r 6.01006 3 4 tcp 1040 ------- 1 0.0 4.0 10 25
+ 6.01006 4 3 ack 40 ------- 1 4.0 0.0 10 38
- 6.01006 4 3 ack 40 ------- 1 4.0 0.0 10 38
r 6.010068 3 4 tcp 1040 ------- 1 0.0 4.0 11 26
+ 6.010068 4 3 ack 40 ------- 1 4.0 0.0 11 39
- 6.010068 4 3 ack 40 ------- 1 4.0 0.0 11 39
r 6.010076 3 4 tcp 1040 ------- 1 0.0 4.0 13 28
+ 6.010076 4 3 ack 48 ------- 1 4.0 0.0 11 40
- 6.010076 4 3 ack 48 ------- 1 4.0 0.0 11 40
r 6.162001 5 3 ack 40 ------- 2 5.0 1.0 1 29
+ 6.162001 3 2 ack 40 ------- 2 5.0 1.0 1 29
- 6.162001 3 2 ack 40 ------- 2 5.0 1.0 1 29
r 6.224001 3 2 ack 40 ------- 2 5.0 1.0 1 29
+ 6.224001 2 1 ack 40 ------- 2 5.0 1.0 1 29
- 6.224001 2 1 ack 40 ------- 2 5.0 1.0 1 29
r 6.486014 5 3 ack 40 ------- 2 5.0 1.0 1 30
+ 6.486014 3 2 ack 40 ------- 2 5.0 1.0 1 30
- 6.486014 3 2 ack 40 ------- 2 5.0 1.0 1 30
r 6.486022 5 3 ack 40 ------- 2 5.0 1.0 2 31
+ 6.486022 3 2 ack 40 ------- 2 5.0 1.0 2 31
- 6.486022 3 2 ack 40 ------- 2 5.0 1.0 2 31
r 6.48603 5 3 ack 40 ------- 2 5.0 1.0 3 32
+ 6.48603 3 2 ack 40 ------- 2 5.0 1.0 3 32
- 6.48603 3 2 ack 40 ------- 2 5.0 1.0 3 32
r 6.486038 5 3 ack 40 ------- 2 5.0 1.0 4 33
+ 6.486038 3 2 ack 40 ------- 2 5.0 1.0 4 33
- 6.486038 3 2 ack 40 ------- 2 5.0 1.0 4 33
r 6.510026 4 3 ack 40 ------- 1 4.0 0.0 6 34
+ 6.510026 3 2 ack 40 ------- 1 4.0 0.0 6 34
- 6.510026 3 2 ack 40 ------- 1 4.0 0.0 6 34
r 6.510035 4 3 ack 40 ------- 1 4.0 0.0 7 35
+ 6.510035 3 2 ack 40 ------- 1 4.0 0.0 7 35
- 6.510035 3 2 ack 40 ------- 1 4.0 0.0 7 35
r 6.510043 4 3 ack 40 ------- 1 4.0 0.0 8 36
+ 6.510043 3 2 ack 40 ------- 1 4.0 0.0 8 36
- 6.510043 3 2 ack 40 ------- 1 4.0 0.0 8 36
r 6.510051 4 3 ack 40 ------- 1 4.0 0.0 9 37
+ 6.510051 3 2 ack 40 ------- 1 4.0 0.0 9 37
- 6.510051 3 2 ack 40 ------- 1 4.0 0.0 9 37
r 6.51006 4 3 ack 40 ------- 1 4.0 0.0 10 38
+ 6.51006 3 2 ack 40 ------- 1 4.0 0.0 10 38
- 6.51006 3 2 ack 40 ------- 1 4.0 0.0 10 38
r 6.510068 4 3 ack 40 ------- 1 4.0 0.0 11 39
+ 6.510068 3 2 ack 40 ------- 1 4.0 0.0 11 39
- 6.510068 3 2 ack 40 ------- 1 4.0 0.0 11 39
r 6.510076 4 3 ack 48 ------- 1 4.0 0.0 11 40
+ 6.510076 3 2 ack 48 ------- 1 4.0 0.0 11 40
- 6.510076 3 2 ack 48 ------- 1 4.0 0.0 11 40
r 6.548014 3 2 ack 40 ------- 2 5.0 1.0 1 30
+ 6.548014 2 1 ack 40 ------- 2 5.0 1.0 1 30
- 6.548014 2 1 ack 40 ------- 2 5.0 1.0 1 30
r 6.548022 3 2 ack 40 ------- 2 5.0 1.0 2 31
+ 6.548022 2 1 ack 40 ------- 2 5.0 1.0 2 31
- 6.548022 2 1 ack 40 ------- 2 5.0 1.0 2 31
r 6.54803 3 2 ack 40 ------- 2 5.0 1.0 3 32
+ 6.54803 2 1 ack 40 ------- 2 5.0 1.0 3 32
- 6.54803 2 1 ack 40 ------- 2 5.0 1.0 3 32
r 6.548039 3 2 ack 40 ------- 2 5.0 1.0 4 33
+ 6.548039 2 1 ack 40 ------- 2 5.0 1.0 4 33
- 6.548039 2 1 ack 40 ------- 2 5.0 1.0 4 33
r 6.572027 3 2 ack 40 ------- 1 4.0 0.0 6 34
+ 6.572027 2 0 ack 40 ------- 1 4.0 0.0 6 34
- 6.572027 2 0 ack 40 ------- 1 4.0 0.0 6 34
r 6.572035 3 2 ack 40 ------- 1 4.0 0.0 7 35
+ 6.572035 2 0 ack 40 ------- 1 4.0 0.0 7 35
- 6.572035 2 0 ack 40 ------- 1 4.0 0.0 7 35
r 6.572043 3 2 ack 40 ------- 1 4.0 0.0 8 36
+ 6.572043 2 0 ack 40 ------- 1 4.0 0.0 8 36
- 6.572043 2 0 ack 40 ------- 1 4.0 0.0 8 36
r 6.572052 3 2 ack 40 ------- 1 4.0 0.0 9 37
+ 6.572052 2 0 ack 40 ------- 1 4.0 0.0 9 37
- 6.572052 2 0 ack 40 ------- 1 4.0 0.0 9 37
r 6.57206 3 2 ack 40 ------- 1 4.0 0.0 10 38
+ 6.57206 2 0 ack 40 ------- 1 4.0 0.0 10 38
- 6.57206 2 0 ack 40 ------- 1 4.0 0.0 10 38
r 6.572068 3 2 ack 40 ------- 1 4.0 0.0 11 39
+ 6.572068 2 0 ack 40 ------- 1 4.0 0.0 11 39
- 6.572068 2 0 ack 40 ------- 1 4.0 0.0 11 39
r 6.572077 3 2 ack 48 ------- 1 4.0 0.0 11 40
+ 6.572077 2 0 ack 48 ------- 1 4.0 0.0 11 40
- 6.572077 2 0 ack 48 ------- 1 4.0 0.0 11 40
r 7.024001 2 1 ack 40 ------- 2 5.0 1.0 1 29
r 7.072027 2 0 ack 40 ------- 1 4.0 0.0 6 34
7.07203  0  0  4  0  ack_ 6
7.07203  0  0  4  0  cwnd_ 9.000 
+ 7.072027 0 2 tcp 1040 ------- 1 0.0 4.0 14 41
- 7.072027 0 2 tcp 1040 ------- 1 0.0 4.0 14 41
7.07203  0  0  4  0  maxseq_ 14
+ 7.072027 0 2 tcp 1040 ------- 1 0.0 4.0 15 42
7.07203  0  0  4  0  maxseq_ 15
- 7.072029 0 2 tcp 1040 ------- 1 0.0 4.0 15 42
r 7.072035 2 0 ack 40 ------- 1 4.0 0.0 7 35
7.07204  0  0  4  0  ack_ 7
7.07204  0  0  4  0  cwnd_ 10.000
+ 7.072035 0 2 tcp 1040 ------- 1 0.0 4.0 16 43
- 7.072035 0 2 tcp 1040 ------- 1 0.0 4.0 16 43
7.07204  0  0  4  0  maxseq_ 16
+ 7.072035 0 2 tcp 1040 ------- 1 0.0 4.0 17 44
7.07204  0  0  4  0  maxseq_ 17
- 7.072037 0 2 tcp 1040 ------- 1 0.0 4.0 17 44
r 7.072044 2 0 ack 40 ------- 1 4.0 0.0 8 36
7.07204  0  0  4  0  ack_ 8
7.07204  0  0  4  0  cwnd_ 11.000
+ 7.072044 0 2 tcp 1040 ------- 1 0.0 4.0 18 45
- 7.072044 0 2 tcp 1040 ------- 1 0.0 4.0 18 45
7.07204  0  0  4  0  maxseq_ 18
+ 7.072044 0 2 tcp 1040 ------- 1 0.0 4.0 19 46
7.07204  0  0  4  0  maxseq_ 19
- 7.072046 0 2 tcp 1040 ------- 1 0.0 4.0 19 46
r 7.072052 2 0 ack 40 ------- 1 4.0 0.0 9 37
7.07205  0  0  4  0  ack_ 9
7.07205  0  0  4  0  cwnd_ 12.000
+ 7.072052 0 2 tcp 1040 ------- 1 0.0 4.0 20 47
- 7.072052 0 2 tcp 1040 ------- 1 0.0 4.0 20 47
7.07205  0  0  4  0  maxseq_ 20
+ 7.072052 0 2 tcp 1040 ------- 1 0.0 4.0 21 48
7.07205  0  0  4  0  maxseq_ 21
- 7.072054 0 2 tcp 1040 ------- 1 0.0 4.0 21 48
r 7.07206 2 0 ack 40 ------- 1 4.0 0.0 10 38
7.07206  0  0  4  0  ack_ 10
7.07206  0  0  4  0  cwnd_ 13.000
+ 7.07206 0 2 tcp 1040 ------- 1 0.0 4.0 22 49
- 7.07206 0 2 tcp 1040 ------- 1 0.0 4.0 22 49
7.07206  0  0  4  0  maxseq_ 22
+ 7.07206 0 2 tcp 1040 ------- 1 0.0 4.0 23 50
7.07206  0  0  4  0  maxseq_ 23
- 7.072062 0 2 tcp 1040 ------- 1 0.0 4.0 23 50
r 7.072068 2 0 ack 40 ------- 1 4.0 0.0 11 39
7.07207  0  0  4  0  ack_ 11
7.07207  0  0  4  0  cwnd_ 14.000
+ 7.072068 0 2 tcp 1040 ------- 1 0.0 4.0 24 51
- 7.072068 0 2 tcp 1040 ------- 1 0.0 4.0 24 51
7.07207  0  0  4  0  maxseq_ 24
+ 7.072068 0 2 tcp 1040 ------- 1 0.0 4.0 25 52
7.07207  0  0  4  0  maxseq_ 25
- 7.072071 0 2 tcp 1040 ------- 1 0.0 4.0 25 52
r 7.072077 2 0 ack 48 ------- 1 4.0 0.0 11 40
+ 7.072077 0 2 tcp 1040 ------- 1 0.0 4.0 26 53
- 7.072077 0 2 tcp 1040 ------- 1 0.0 4.0 26 53
7.07208  0  0  4  0  maxseq_ 26
r 7.348014 2 1 ack 40 ------- 2 5.0 1.0 1 30
r 7.348022 2 1 ack 40 ------- 2 5.0 1.0 2 31
7.34802  1  0  5  0  ack_ 2
7.34802  1  0  5  0  rtt_ 3.324 
+ 7.348022 1 2 tcp 1040 ------- 2 1.0 5.0 5 54
- 7.348022 1 2 tcp 1040 ------- 2 1.0 5.0 5 54
7.34802  1  0  5  0  maxseq_ 5
r 7.348031 2 1 ack 40 ------- 2 5.0 1.0 3 32
7.34803  1  0  5  0  ack_ 3
+ 7.348031 1 2 tcp 1040 ------- 2 1.0 5.0 6 55
- 7.348031 1 2 tcp 1040 ------- 2 1.0 5.0 6 55
7.34803  1  0  5  0  maxseq_ 6
r 7.348039 2 1 ack 40 ------- 2 5.0 1.0 4 33
7.34804  1  0  5  0  ack_ 4
+ 7.348039 1 2 tcp 1040 ------- 2 1.0 5.0 7 56
- 7.348039 1 2 tcp 1040 ------- 2 1.0 5.0 7 56
7.34804  1  0  5  0  maxseq_ 7
r 7.572029 0 2 tcp 1040 ------- 1 0.0 4.0 14 41
+ 7.572029 2 3 tcp 1040 ------- 1 0.0 4.0 14 41
- 7.572029 2 3 tcp 1040 ------- 1 0.0 4.0 14 41
r 7.572031 0 2 tcp 1040 ------- 1 0.0 4.0 15 42
+ 7.572031 2 3 tcp 1040 ------- 1 0.0 4.0 15 42
- 7.572037 2 3 tcp 1040 ------- 1 0.0 4.0 15 42
r 7.572037 0 2 tcp 1040 ------- 1 0.0 4.0 16 43
+ 7.572037 2 3 tcp 1040 ------- 1 0.0 4.0 16 43
r 7.572039 0 2 tcp 1040 ------- 1 0.0 4.0 17 44
+ 7.572039 2 3 tcp 1040 ------- 1 0.0 4.0 17 44
r 7.572046 0 2 tcp 1040 ------- 1 0.0 4.0 18 45
+ 7.572046 2 3 tcp 1040 ------- 1 0.0 4.0 18 45
- 7.572046 2 3 tcp 1040 ------- 1 0.0 4.0 16 43
r 7.572048 0 2 tcp 1040 ------- 1 0.0 4.0 19 46
+ 7.572048 2 3 tcp 1040 ------- 1 0.0 4.0 19 46
- 7.572054 2 3 tcp 1040 ------- 1 0.0 4.0 17 44
r 7.572054 0 2 tcp 1040 ------- 1 0.0 4.0 20 47
+ 7.572054 2 3 tcp 1040 ------- 1 0.0 4.0 20 47
r 7.572056 0 2 tcp 1040 ------- 1 0.0 4.0 21 48
+ 7.572056 2 3 tcp 1040 ------- 1 0.0 4.0 21 48
d 7.572056 2 3 tcp 1040 ------- 1 0.0 4.0 21 48
r 7.572062 0 2 tcp 1040 ------- 1 0.0 4.0 22 49
+ 7.572062 2 3 tcp 1040 ------- 1 0.0 4.0 22 49
d 7.572062 2 3 tcp 1040 ------- 1 0.0 4.0 22 49
- 7.572062 2 3 tcp 1040 ------- 1 0.0 4.0 18 45
r 7.572064 0 2 tcp 1040 ------- 1 0.0 4.0 23 50
+ 7.572064 2 3 tcp 1040 ------- 1 0.0 4.0 23 50
- 7.572071 2 3 tcp 1040 ------- 1 0.0 4.0 19 46
r 7.572071 0 2 tcp 1040 ------- 1 0.0 4.0 24 51
+ 7.572071 2 3 tcp 1040 ------- 1 0.0 4.0 24 51
r 7.572073 0 2 tcp 1040 ------- 1 0.0 4.0 25 52
+ 7.572073 2 3 tcp 1040 ------- 1 0.0 4.0 25 52
d 7.572073 2 3 tcp 1040 ------- 1 0.0 4.0 25 52
- 7.572079 2 3 tcp 1040 ------- 1 0.0 4.0 20 47
r 7.572079 0 2 tcp 1040 ------- 1 0.0 4.0 26 53
+ 7.572079 2 3 tcp 1040 ------- 1 0.0 4.0 26 53
- 7.572087 2 3 tcp 1040 ------- 1 0.0 4.0 23 50
- 7.572096 2 3 tcp 1040 ------- 1 0.0 4.0 24 51
- 7.572104 2 3 tcp 1040 ------- 1 0.0 4.0 26 53
r 7.634037 2 3 tcp 1040 ------- 1 0.0 4.0 14 41
+ 7.634037 3 4 tcp 1040 ------- 1 0.0 4.0 14 41
- 7.634037 3 4 tcp 1040 ------- 1 0.0 4.0 14 41
r 7.634046 2 3 tcp 1040 ------- 1 0.0 4.0 15 42
+ 7.634046 3 4 tcp 1040 ------- 1 0.0 4.0 15 42
- 7.634046 3 4 tcp 1040 ------- 1 0.0 4.0 15 42
r 7.634054 2 3 tcp 1040 ------- 1 0.0 4.0 16 43
+ 7.634054 3 4 tcp 1040 ------- 1 0.0 4.0 16 43
- 7.634054 3 4 tcp 1040 ------- 1 0.0 4.0 16 43
r 7.634062 2 3 tcp 1040 ------- 1 0.0 4.0 17 44
+ 7.634062 3 4 tcp 1040 ------- 1 0.0 4.0 17 44
- 7.634062 3 4 tcp 1040 ------- 1 0.0 4.0 17 44
r 7.634071 2 3 tcp 1040 ------- 1 0.0 4.0 18 45
+ 7.634071 3 4 tcp 1040 ------- 1 0.0 4.0 18 45
- 7.634071 3 4 tcp 1040 ------- 1 0.0 4.0 18 45
r 7.634079 2 3 tcp 1040 ------- 1 0.0 4.0 19 46
+ 7.634079 3 4 tcp 1040 ------- 1 0.0 4.0 19 46
- 7.634079 3 4 tcp 1040 ------- 1 0.0 4.0 19 46
r 7.634087 2 3 tcp 1040 ------- 1 0.0 4.0 20 47
+ 7.634087 3 4 tcp 1040 ------- 1 0.0 4.0 20 47
- 7.634087 3 4 tcp 1040 ------- 1 0.0 4.0 20 47
r 7.634096 2 3 tcp 1040 ------- 1 0.0 4.0 23 50
+ 7.634096 3 4 tcp 1040 ------- 1 0.0 4.0 23 50
- 7.634096 3 4 tcp 1040 ------- 1 0.0 4.0 23 50
r 7.634104 2 3 tcp 1040 ------- 1 0.0 4.0 24 51
+ 7.634104 3 4 tcp 1040 ------- 1 0.0 4.0 24 51
- 7.634104 3 4 tcp 1040 ------- 1 0.0 4.0 24 51
r 7.634112 2 3 tcp 1040 ------- 1 0.0 4.0 26 53
+ 7.634112 3 4 tcp 1040 ------- 1 0.0 4.0 26 53
- 7.634112 3 4 tcp 1040 ------- 1 0.0 4.0 26 53
r 8.134039 3 4 tcp 1040 ------- 1 0.0 4.0 14 41
+ 8.134039 4 3 ack 48 ------- 1 4.0 0.0 11 57
- 8.134039 4 3 ack 48 ------- 1 4.0 0.0 11 57
r 8.134048 3 4 tcp 1040 ------- 1 0.0 4.0 15 42
+ 8.134048 4 3 ack 48 ------- 1 4.0 0.0 11 58
- 8.134048 4 3 ack 48 ------- 1 4.0 0.0 11 58
r 8.134056 3 4 tcp 1040 ------- 1 0.0 4.0 16 43
+ 8.134056 4 3 ack 48 ------- 1 4.0 0.0 11 59
- 8.134056 4 3 ack 48 ------- 1 4.0 0.0 11 59
r 8.134064 3 4 tcp 1040 ------- 1 0.0 4.0 17 44
+ 8.134064 4 3 ack 48 ------- 1 4.0 0.0 11 60
- 8.134064 4 3 ack 48 ------- 1 4.0 0.0 11 60
r 8.134073 3 4 tcp 1040 ------- 1 0.0 4.0 18 45
+ 8.134073 4 3 ack 48 ------- 1 4.0 0.0 11 61
- 8.134073 4 3 ack 48 ------- 1 4.0 0.0 11 61
r 8.134081 3 4 tcp 1040 ------- 1 0.0 4.0 19 46
+ 8.134081 4 3 ack 48 ------- 1 4.0 0.0 11 62
- 8.134081 4 3 ack 48 ------- 1 4.0 0.0 11 62
r 8.134089 3 4 tcp 1040 ------- 1 0.0 4.0 20 47
+ 8.134089 4 3 ack 48 ------- 1 4.0 0.0 11 63
- 8.134089 4 3 ack 48 ------- 1 4.0 0.0 11 63
r 8.134098 3 4 tcp 1040 ------- 1 0.0 4.0 23 50
+ 8.134098 4 3 ack 56 ------- 1 4.0 0.0 11 64
- 8.134098 4 3 ack 56 ------- 1 4.0 0.0 11 64
r 8.134106 3 4 tcp 1040 ------- 1 0.0 4.0 24 51
+ 8.134106 4 3 ack 56 ------- 1 4.0 0.0 11 65
- 8.134106 4 3 ack 56 ------- 1 4.0 0.0 11 65
r 8.134114 3 4 tcp 1040 ------- 1 0.0 4.0 26 53
+ 8.134114 4 3 ack 64 ------- 1 4.0 0.0 11 66
- 8.134114 4 3 ack 64 ------- 1 4.0 0.0 11 66
r 8.148024 1 2 tcp 1040 ------- 2 1.0 5.0 5 54
+ 8.148024 2 3 tcp 1040 ------- 2 1.0 5.0 5 54
- 8.148024 2 3 tcp 1040 ------- 2 1.0 5.0 5 54
r 8.148033 1 2 tcp 1040 ------- 2 1.0 5.0 6 55
+ 8.148033 2 3 tcp 1040 ------- 2 1.0 5.0 6 55
- 8.148033 2 3 tcp 1040 ------- 2 1.0 5.0 6 55
r 8.148041 1 2 tcp 1040 ------- 2 1.0 5.0 7 56
+ 8.148041 2 3 tcp 1040 ------- 2 1.0 5.0 7 56
- 8.148041 2 3 tcp 1040 ------- 2 1.0 5.0 7 56
r 8.210033 2 3 tcp 1040 ------- 2 1.0 5.0 5 54
+ 8.210033 3 5 tcp 1040 ------- 2 1.0 5.0 5 54
- 8.210033 3 5 tcp 1040 ------- 2 1.0 5.0 5 54
r 8.210041 2 3 tcp 1040 ------- 2 1.0 5.0 6 55
+ 8.210041 3 5 tcp 1040 ------- 2 1.0 5.0 6 55
- 8.210041 3 5 tcp 1040 ------- 2 1.0 5.0 6 55
r 8.210049 2 3 tcp 1040 ------- 2 1.0 5.0 7 56
+ 8.210049 3 5 tcp 1040 ------- 2 1.0 5.0 7 56
- 8.210049 3 5 tcp 1040 ------- 2 1.0 5.0 7 56
r 8.634039 4 3 ack 48 ------- 1 4.0 0.0 11 57
+ 8.634039 3 2 ack 48 ------- 1 4.0 0.0 11 57
- 8.634039 3 2 ack 48 ------- 1 4.0 0.0 11 57
r 8.634048 4 3 ack 48 ------- 1 4.0 0.0 11 58
+ 8.634048 3 2 ack 48 ------- 1 4.0 0.0 11 58
- 8.634048 3 2 ack 48 ------- 1 4.0 0.0 11 58
r 8.634056 4 3 ack 48 ------- 1 4.0 0.0 11 59
+ 8.634056 3 2 ack 48 ------- 1 4.0 0.0 11 59
- 8.634056 3 2 ack 48 ------- 1 4.0 0.0 11 59
r 8.634064 4 3 ack 48 ------- 1 4.0 0.0 11 60
+ 8.634064 3 2 ack 48 ------- 1 4.0 0.0 11 60
- 8.634064 3 2 ack 48 ------- 1 4.0 0.0 11 60
r 8.634073 4 3 ack 48 ------- 1 4.0 0.0 11 61
+ 8.634073 3 2 ack 48 ------- 1 4.0 0.0 11 61
- 8.634073 3 2 ack 48 ------- 1 4.0 0.0 11 61
r 8.634081 4 3 ack 48 ------- 1 4.0 0.0 11 62
+ 8.634081 3 2 ack 48 ------- 1 4.0 0.0 11 62
- 8.634081 3 2 ack 48 ------- 1 4.0 0.0 11 62
r 8.634089 4 3 ack 48 ------- 1 4.0 0.0 11 63
+ 8.634089 3 2 ack 48 ------- 1 4.0 0.0 11 63
- 8.634089 3 2 ack 48 ------- 1 4.0 0.0 11 63
r 8.634098 4 3 ack 56 ------- 1 4.0 0.0 11 64
+ 8.634098 3 2 ack 56 ------- 1 4.0 0.0 11 64
- 8.634098 3 2 ack 56 ------- 1 4.0 0.0 11 64
r 8.634106 4 3 ack 56 ------- 1 4.0 0.0 11 65
+ 8.634106 3 2 ack 56 ------- 1 4.0 0.0 11 65
- 8.634106 3 2 ack 56 ------- 1 4.0 0.0 11 65
r 8.634114 4 3 ack 64 ------- 1 4.0 0.0 11 66
+ 8.634114 3 2 ack 64 ------- 1 4.0 0.0 11 66
- 8.634114 3 2 ack 64 ------- 1 4.0 0.0 11 66
r 8.69604 3 2 ack 48 ------- 1 4.0 0.0 11 57
+ 8.69604 2 0 ack 48 ------- 1 4.0 0.0 11 57
- 8.69604 2 0 ack 48 ------- 1 4.0 0.0 11 57
r 8.696048 3 2 ack 48 ------- 1 4.0 0.0 11 58
+ 8.696048 2 0 ack 48 ------- 1 4.0 0.0 11 58
- 8.696048 2 0 ack 48 ------- 1 4.0 0.0 11 58
r 8.696056 3 2 ack 48 ------- 1 4.0 0.0 11 59
+ 8.696056 2 0 ack 48 ------- 1 4.0 0.0 11 59
- 8.696056 2 0 ack 48 ------- 1 4.0 0.0 11 59
r 8.696065 3 2 ack 48 ------- 1 4.0 0.0 11 60
+ 8.696065 2 0 ack 48 ------- 1 4.0 0.0 11 60
- 8.696065 2 0 ack 48 ------- 1 4.0 0.0 11 60
r 8.696073 3 2 ack 48 ------- 1 4.0 0.0 11 61
+ 8.696073 2 0 ack 48 ------- 1 4.0 0.0 11 61
- 8.696073 2 0 ack 48 ------- 1 4.0 0.0 11 61
r 8.696081 3 2 ack 48 ------- 1 4.0 0.0 11 62
+ 8.696081 2 0 ack 48 ------- 1 4.0 0.0 11 62
- 8.696081 2 0 ack 48 ------- 1 4.0 0.0 11 62
r 8.69609 3 2 ack 48 ------- 1 4.0 0.0 11 63
+ 8.69609 2 0 ack 48 ------- 1 4.0 0.0 11 63
- 8.69609 2 0 ack 48 ------- 1 4.0 0.0 11 63
r 8.696098 3 2 ack 56 ------- 1 4.0 0.0 11 64
+ 8.696098 2 0 ack 56 ------- 1 4.0 0.0 11 64
- 8.696098 2 0 ack 56 ------- 1 4.0 0.0 11 64
r 8.696106 3 2 ack 56 ------- 1 4.0 0.0 11 65
+ 8.696106 2 0 ack 56 ------- 1 4.0 0.0 11 65
- 8.696106 2 0 ack 56 ------- 1 4.0 0.0 11 65
r 8.696115 3 2 ack 64 ------- 1 4.0 0.0 11 66
+ 8.696115 2 0 ack 64 ------- 1 4.0 0.0 11 66
- 8.696115 2 0 ack 64 ------- 1 4.0 0.0 11 66
r 9.010035 3 5 tcp 1040 ------- 2 1.0 5.0 5 54
+ 9.010035 5 3 ack 40 ------- 2 5.0 1.0 5 67
- 9.010035 5 3 ack 40 ------- 2 5.0 1.0 5 67
r 9.010043 3 5 tcp 1040 ------- 2 1.0 5.0 6 55
+ 9.010043 5 3 ack 40 ------- 2 5.0 1.0 6 68
- 9.010043 5 3 ack 40 ------- 2 5.0 1.0 6 68
r 9.010051 3 5 tcp 1040 ------- 2 1.0 5.0 7 56
+ 9.010051 5 3 ack 40 ------- 2 5.0 1.0 7 69
- 9.010051 5 3 ack 40 ------- 2 5.0 1.0 7 69
r 9.19604 2 0 ack 48 ------- 1 4.0 0.0 11 57
+ 9.19604 0 2 tcp 1040 ------- 1 0.0 4.0 27 70
- 9.19604 0 2 tcp 1040 ------- 1 0.0 4.0 27 70
9.19604  0  0  4  0  maxseq_ 27
r 9.196048 2 0 ack 48 ------- 1 4.0 0.0 11 58
+ 9.196048 0 2 tcp 1040 ------- 1 0.0 4.0 28 71
- 9.196048 0 2 tcp 1040 ------- 1 0.0 4.0 28 71
9.19605  0  0  4  0  maxseq_ 28
r 9.196057 2 0 ack 48 ------- 1 4.0 0.0 11 59
9.19606  0  0  4  0  ssthresh_ 11
+ 9.196057 0 2 tcp 1040 ---A--- 1 0.0 4.0 12 72
- 9.196057 0 2 tcp 1040 ---A--- 1 0.0 4.0 12 72
r 9.196065 2 0 ack 48 ------- 1 4.0 0.0 11 60
9.19606  0  0  4  0  cwnd_ 12.000
r 9.196073 2 0 ack 48 ------- 1 4.0 0.0 11 61