0.00000  0  0  4  0  cwnd_ 2.000 
0.00000  0  0  4  0  ssthresh_ 20
0.00000  0  0  4  0  ack_ -1
0.00000  0  0  4  0  maxseq_ -1
0.00000  0  0  4  0  rtt_ 0.000 
0.00000  1  0  5  0  cwnd_ 2.000 
0.00000  1  0  5  0  ssthresh_ 20
0.00000  1  0  5  0  ack_ -1
0.00000  1  0  5  0  maxseq_ -1
0.00000  1  0  5  0  rtt_ 0.000 
0.00000  0  0  4  0  ssthresh_ 758
0.00000  1  0  5  0  ssthresh_ 858
+ 0.9 0 2 tcp 40 ------- 1 0.0 4.0 0 0
- 0.9 0 2 tcp 40 ------- 1 0.0 4.0 0 0
0.90000  0  0  4  0  maxseq_ 0
+ 0.9 0 2 tcp 1040 ------- 1 0.0 4.0 1 1
0.90000  0  0  4  0  maxseq_ 1
+ 0.9 1 2 tcp 40 ------- 2 1.0 5.0 0 2
- 0.9 1 2 tcp 40 ------- 2 1.0 5.0 0 2
0.90000  1  0  5  0  maxseq_ 0
+ 0.9 1 2 tcp 1040 ------- 2 1.0 5.0 1 3
0.90000  1  0  5  0  maxseq_ 1
- 0.9 0 2 tcp 1040 ------- 1 0.0 4.0 1 1
- 0.9 1 2 tcp 1040 ------- 2 1.0 5.0 1 3
r 1.4 0 2 tcp 40 ------- 1 0.0 4.0 0 0
+ 1.4 2 3 tcp 40 ------- 1 0.0 4.0 0 0
- 1.4 2 3 tcp 40 ------- 1 0.0 4.0 0 0
r 1.400002 0 2 tcp 1040 ------- 1 0.0 4.0 1 1
+ 1.400002 2 3 tcp 1040 ------- 1 0.0 4.0 1 1
- 1.400002 2 3 tcp 1040 ------- 1 0.0 4.0 1 1
r 1.439 2 3 tcp 40 ------- 1 0.0 4.0 0 0
+ 1.439 3 4 tcp 40 ------- 1 0.0 4.0 0 0
- 1.439 3 4 tcp 40 ------- 1 0.0 4.0 0 0
r 1.43901 2 3 tcp 1040 ------- 1 0.0 4.0 1 1
+ 1.43901 3 4 tcp 1040 ------- 1 0.0 4.0 1 1
- 1.43901 3 4 tcp 1040 ------- 1 0.0 4.0 1 1
r 1.7 1 2 tcp 40 ------- 2 1.0 5.0 0 2
+ 1.7 2 3 tcp 40 ------- 2 1.0 5.0 0 2
- 1.7 2 3 tcp 40 ------- 2 1.0 5.0 0 2
r 1.700002 1 2 tcp 1040 ------- 2 1.0 5.0 1 3
+ 1.700002 2 3 tcp 1040 ------- 2 1.0 5.0 1 3
- 1.700002 2 3 tcp 1040 ------- 2 1.0 5.0 1 3
r 1.739 2 3 tcp 40 ------- 2 1.0 5.0 0 2
+ 1.739 3 5 tcp 40 ------- 2 1.0 5.0 0 2
- 1.739 3 5 tcp 40 ------- 2 1.0 5.0 0 2
r 1.73901 2 3 tcp 1040 ------- 2 1.0 5.0 1 3
+ 1.73901 3 5 tcp 1040 ------- 2 1.0 5.0 1 3
- 1.73901 3 5 tcp 1040 ------- 2 1.0 5.0 1 3
r 1.939 3 4 tcp 40 ------- 1 0.0 4.0 0 0
+ 1.939 4 3 ack 40 ------- 1 4.0 0.0 0 4
- 1.939 4 3 ack 40 ------- 1 4.0 0.0 0 4
r 1.939013 3 4 tcp 1040 ------- 1 0.0 4.0 1 1
+ 1.939013 4 3 ack 40 ------- 1 4.0 0.0 1 5
- 1.939013 4 3 ack 40 ------- 1 4.0 0.0 1 5
r 2.439001 4 3 ack 40 ------- 1 4.0 0.0 0 4
+ 2.439001 3 2 ack 40 ------- 1 4.0 0.0 0 4
- 2.439001 3 2 ack 40 ------- 1 4.0 0.0 0 4
r 2.439013 4 3 ack 40 ------- 1 4.0 0.0 1 5
+ 2.439013 3 2 ack 40 ------- 1 4.0 0.0 1 5
- 2.439013 3 2 ack 40 ------- 1 4.0 0.0 1 5
r 2.478001 3 2 ack 40 ------- 1 4.0 0.0 0 4
+ 2.478001 2 0 ack 40 ------- 1 4.0 0.0 0 4
- 2.478001 2 0 ack 40 ------- 1 4.0 0.0 0 4
r 2.478013 3 2 ack 40 ------- 1 4.0 0.0 1 5
+ 2.478013 2 0 ack 40 ------- 1 4.0 0.0 1 5
- 2.478013 2 0 ack 40 ------- 1 4.0 0.0 1 5
r 2.539 3 5 tcp 40 ------- 2 1.0 5.0 0 2
+ 2.539 5 3 ack 40 ------- 2 5.0 1.0 0 6
- 2.539 5 3 ack 40 ------- 2 5.0 1.0 0 6
r 2.539013 3 5 tcp 1040 ------- 2 1.0 5.0 1 3
+ 2.539013 5 3 ack 40 ------- 2 5.0 1.0 1 7
- 2.539013 5 3 ack 40 ------- 2 5.0 1.0 1 7
r 2.978001 2 0 ack 40 ------- 1 4.0 0.0 0 4
2.97800  0  0  4  0  ack_ 0
2.97800  0  0  4  0  rtt_ 2.078 
2.97800  0  0  4  0  cwnd_ 3.000 
+ 2.978001 0 2 tcp 1040 ------- 1 0.0 4.0 2 8
- 2.978001 0 2 tcp 1040 ------- 1 0.0 4.0 2 8
2.97800  0  0  4  0  maxseq_ 2
+ 2.978001 0 2 tcp 1040 ------- 1 0.0 4.0 3 9
2.97800  0  0  4  0  maxseq_ 3
- 2.978003 0 2 tcp 1040 ------- 1 0.0 4.0 3 9
r 2.978013 2 0 ack 40 ------- 1 4.0 0.0 1 5
2.97801  0  0  4  0  ack_ 1
2.97801  0  0  4  0  cwnd_ 4.000 
+ 2.978013 0 2 tcp 1040 ------- 1 0.0 4.0 4 10
- 2.978013 0 2 tcp 1040 ------- 1 0.0 4.0 4 10
2.97801  0  0  4  0  maxseq_ 4
+ 2.978013 0 2 tcp 1040 ------- 1 0.0 4.0 5 11
2.97801  0  0  4  0  maxseq_ 5
- 2.978015 0 2 tcp 1040 ------- 1 0.0 4.0 5 11
r 3.339001 5 3 ack 40 ------- 2 5.0 1.0 0 6
+ 3.339001 3 2 ack 40 ------- 2 5.0 1.0 0 6
- 3.339001 3 2 ack 40 ------- 2 5.0 1.0 0 6
r 3.339013 5 3 ack 40 ------- 2 5.0 1.0 1 7
+ 3.339013 3 2 ack 40 ------- 2 5.0 1.0 1 7
- 3.339013 3 2 ack 40 ------- 2 5.0 1.0 1 7
r 3.378001 3 2 ack 40 ------- 2 5.0 1.0 0 6
+ 3.378001 2 1 ack 40 ------- 2 5.0 1.0 0 6
- 3.378001 2 1 ack 40 ------- 2 5.0 1.0 0 6
r 3.378013 3 2 ack 40 ------- 2 5.0 1.0 1 7
+ 3.378013 2 1 ack 40 ------- 2 5.0 1.0 1 7
- 3.378013 2 1 ack 40 ------- 2 5.0 1.0 1 7
r 3.478003 0 2 tcp 1040 ------- 1 0.0 4.0 2 8
+ 3.478003 2 3 tcp 1040 ------- 1 0.0 4.0 2 8
- 3.478003 2 3 tcp 1040 ------- 1 0.0 4.0 2 8
r 3.478005 0 2 tcp 1040 ------- 1 0.0 4.0 3 9
+ 3.478005 2 3 tcp 1040 ------- 1 0.0 4.0 3 9
- 3.478011 2 3 tcp 1040 ------- 1 0.0 4.0 3 9
r 3.478015 0 2 tcp 1040 ------- 1 0.0 4.0 4 10
+ 3.478015 2 3 tcp 1040 ------- 1 0.0 4.0 4 10
r 3.478017 0 2 tcp 1040 ------- 1 0.0 4.0 5 11
+ 3.478017 2 3 tcp 1040 ------- 1 0.0 4.0 5 11
- 3.47802 2 3 tcp 1040 ------- 1 0.0 4.0 4 10
- 3.478028 2 3 tcp 1040 ------- 1 0.0 4.0 5 11
r 3.517011 2 3 tcp 1040 ------- 1 0.0 4.0 2 8
+ 3.517011 3 4 tcp 1040 ------- 1 0.0 4.0 2 8
- 3.517011 3 4 tcp 1040 ------- 1 0.0 4.0 2 8
r 3.51702 2 3 tcp 1040 ------- 1 0.0 4.0 3 9
+ 3.51702 3 4 tcp 1040 ------- 1 0.0 4.0 3 9
- 3.51702 3 4 tcp 1040 ------- 1 0.0 4.0 3 9
r 3.517028 2 3 tcp 1040 ------- 1 0.0 4.0 4 10
+ 3.517028 3 4 tcp 1040 ------- 1 0.0 4.0 4 10
- 3.517028 3 4 tcp 1040 ------- 1 0.0 4.0 4 10
r 3.517036 2 3 tcp 1040 ------- 1 0.0 4.0 5 11
+ 3.517036 3 4 tcp 1040 ------- 1 0.0 4.0 5 11
- 3.517036 3 4 tcp 1040 ------- 1 0.0 4.0 5 11
3.90000  1  0  5  0  cwnd_ 1.000 
3.90000  1  0  5  0  ssthresh_ 2
+ 3.9 1 2 tcp 40 ---A--- 2 1.0 5.0 0 12
- 3.9 1 2 tcp 40 ---A--- 2 1.0 5.0 0 12
r 4.017013 3 4 tcp 1040 ------- 1 0.0 4.0 2 8
+ 4.017013 4 3 ack 40 ------- 1 4.0 0.0 2 13
- 4.017013 4 3 ack 40 ------- 1 4.0 0.0 2 13
r 4.017022 3 4 tcp 1040 ------- 1 0.0 4.0 3 9
+ 4.017022 4 3 ack 40 ------- 1 4.0 0.0 3 14
- 4.017022 4 3 ack 40 ------- 1 4.0 0.0 3 14
r 4.01703 3 4 tcp 1040 ------- 1 0.0 4.0 4 10
+ 4.01703 4 3 ack 40 ------- 1 4.0 0.0 4 15
- 4.01703 4 3 ack 40 ------- 1 4.0 0.0 4 15
r 4.017038 3 4 tcp 1040 ------- 1 0.0 4.0 5 11
+ 4.017038 4 3 ack 40 ------- 1 4.0 0.0 5 16
- 4.017038 4 3 ack 40 ------- 1 4.0 0.0 5 16
r 4.178001 2 1 ack 40 ------- 2 5.0 1.0 0 6
4.17800  1  0  5  0  ack_ 0
4.17800  1  0  5  0  cwnd_ 2.000 
+ 4.178001 1 2 tcp 1040 ------- 2 1.0 5.0 1 17
- 4.178001 1 2 tcp 1040 ------- 2 1.0 5.0 1 17
+ 4.178001 1 2 tcp 1040 ------- 2 1.0 5.0 2 18
4.17800  1  0  5  0  maxseq_ 2
- 4.178003 1 2 tcp 1040 ------- 2 1.0 5.0 2 18
r 4.178013 2 1 ack 40 ------- 2 5.0 1.0 1 7
4.17801  1  0  5  0  ack_ 1
4.17801  1  0  5  0  cwnd_ 3.000 
+ 4.178013 1 2 tcp 1040 ------- 2 1.0 5.0 3 19
- 4.178013 1 2 tcp 1040 ------- 2 1.0 5.0 3 19
4.17801  1  0  5  0  maxseq_ 3
+ 4.178013 1 2 tcp 1040 ------- 2 1.0 5.0 4 20
4.17801  1  0  5  0  maxseq_ 4
- 4.178015 1 2 tcp 1040 ------- 2 1.0 5.0 4 20
r 4.517014 4 3 ack 40 ------- 1 4.0 0.0 2 13
+ 4.517014 3 2 ack 40 ------- 1 4.0 0.0 2 13
- 4.517014 3 2 ack 40 ------- 1 4.0 0.0 2 13
r 4.517022 4 3 ack 40 ------- 1 4.0 0.0 3 14
+ 4.517022 3 2 ack 40 ------- 1 4.0 0.0 3 14
- 4.517022 3 2 ack 40 ------- 1 4.0 0.0 3 14
r 4.51703 4 3 ack 40 ------- 1 4.0 0.0 4 15
+ 4.51703 3 2 ack 40 ------- 1 4.0 0.0 4 15
- 4.51703 3 2 ack 40 ------- 1 4.0 0.0 4 15
r 4.517038 4 3 ack 40 ------- 1 4.0 0.0 5 16
+ 4.517038 3 2 ack 40 ------- 1 4.0 0.0 5 16
- 4.517038 3 2 ack 40 ------- 1 4.0 0.0 5 16
r 4.556014 3 2 ack 40 ------- 1 4.0 0.0 2 13
+ 4.556014 2 0 ack 40 ------- 1 4.0 0.0 2 13
- 4.556014 2 0 ack 40 ------- 1 4.0 0.0 2 13
r 4.556022 3 2 ack 40 ------- 1 4.0 0.0 3 14
+ 4.556022 2 0 ack 40 ------- 1 4.0 0.0 3 14
- 4.556022 2 0 ack 40 ------- 1 4.0 0.0 3 14
r 4.55603 3 2 ack 40 ------- 1 4.0 0.0 4 15
+ 4.55603 2 0 ack 40 ------- 1 4.0 0.0 4 15
- 4.55603 2 0 ack 40 ------- 1 4.0 0.0 4 15
r 4.556039 3 2 ack 40 ------- 1 4.0 0.0 5 16
+ 4.556039 2 0 ack 40 ------- 1 4.0 0.0 5 16
- 4.556039 2 0 ack 40 ------- 1 4.0 0.0 5 16
r 4.7 1 2 tcp 40 ---A--- 2 1.0 5.0 0 12
+ 4.7 2 3 tcp 40 ---A--- 2 1.0 5.0 0 12
- 4.7 2 3 tcp 40 ---A--- 2 1.0 5.0 0 12
r 4.739 2 3 tcp 40 ---A--- 2 1.0 5.0 0 12
+ 4.739 3 5 tcp 40 ---A--- 2 1.0 5.0 0 12
- 4.739 3 5 tcp 40 ---A--- 2 1.0 5.0 0 12
r 4.978003 1 2 tcp 1040 ------- 2 1.0 5.0 1 17
+ 4.978003 2 3 tcp 1040 ------- 2 1.0 5.0 1 17
- 4.978003 2 3 tcp 1040 ------- 2 1.0 5.0 1 17
r 4.978005 1 2 tcp 1040 ------- 2 1.0 5.0 2 18
+ 4.978005 2 3 tcp 1040 ------- 2 1.0 5.0 2 18
- 4.978011 2 3 tcp 1040 ------- 2 1.0 5.0 2 18
r 4.978015 1 2 tcp 1040 ------- 2 1.0 5.0 3 19
+ 4.978015 2 3 tcp 1040 ------- 2 1.0 5.0 3 19
r 4.978017 1 2 tcp 1040 ------- 2 1.0 5.0 4 20
+ 4.978017 2 3 tcp 1040 ------- 2 1.0 5.0 4 20
- 4.97802 2 3 tcp 1040 ------- 2 1.0 5.0 3 19
- 4.978028 2 3 tcp 1040 ------- 2 1.0 5.0 4 20
r 5.017011 2 3 tcp 1040 ------- 2 1.0 5.0 1 17
+ 5.017011 3 5 tcp 1040 ------- 2 1.0 5.0 1 17
- 5.017011 3 5 tcp 1040 ------- 2 1.0 5.0 1 17
r 5.01702 2 3 tcp 1040 ------- 2 1.0 5.0 2 18
+ 5.01702 3 5 tcp 1040 ------- 2 1.0 5.0 2 18
- 5.01702 3 5 tcp 1040 ------- 2 1.0 5.0 2 18
r 5.017028 2 3 tcp 1040 ------- 2 1.0 5.0 3 19
+ 5.017028 3 5 tcp 1040 ------- 2 1.0 5.0 3 19
- 5.017028 3 5 tcp 1040 ------- 2 1.0 5.0 3 19
r 5.017036 2 3 tcp 1040 ------- 2 1.0 5.0 4 20
+ 5.017036 3 5 tcp 1040 ------- 2 1.0 5.0 4 20
- 5.017036 3 5 tcp 1040 ------- 2 1.0 5.0 4 20
r 5.056014 2 0 ack 40 ------- 1 4.0 0.0 2 13
5.05601  0  0  4  0  ack_ 2
5.05601  0  0  4  0  cwnd_ 5.000 
+ 5.056014 0 2 tcp 1040 ------- 1 0.0 4.0 6 21
- 5.056014 0 2 tcp 1040 ------- 1 0.0 4.0 6 21
5.05601  0  0  4  0  maxseq_ 6
+ 5.056014 0 2 tcp 1040 ------- 1 0.0 4.0 7 22
5.05601  0  0  4  0  maxseq_ 7
- 5.056016 0 2 tcp 1040 ------- 1 0.0 4.0 7 22
r 5.056022 2 0 ack 40 ------- 1 4.0 0.0 3 14
5.05602  0  0  4  0  ack_ 3
5.05602  0  0  4  0  cwnd_ 6.000 
+ 5.056022 0 2 tcp 1040 ------- 1 0.0 4.0 8 23
- 5.056022 0 2 tcp 1040 ------- 1 0.0 4.0 8 23
5.05602  0  0  4  0  maxseq_ 8
+ 5.056022 0 2 tcp 1040 ------- 1 0.0 4.0 9 24
5.05602  0  0  4  0  maxseq_ 9
- 5.056024 0 2 tcp 1040 ------- 1 0.0 4.0 9 24
r 5.056031 2 0 ack 40 ------- 1 4.0 0.0 4 15
5.05603  0  0  4  0  ack_ 4
5.05603  0  0  4  0  cwnd_ 7.000 
+ 5.056031 0 2 tcp 1040 ------- 1 0.0 4.0 10 25
- 5.056031 0 2 tcp 1040 ------- 1 0.0 4.0 10 25
5.05603  0  0  4  0  maxseq_ 10
+ 5.056031 0 2 tcp 1040 ------- 1 0.0 4.0 11 26
5.05603  0  0  4  0  maxseq_ 11
- 5.056033 0 2 tcp 1040 ------- 1 0.0 4.0 11 26
r 5.056039 2 0 ack 40 ------- 1 4.0 0.0 5 16
5.05604  0  0  4  0  ack_ 5
5.05604  0  0  4  0  cwnd_ 8.000 
+ 5.056039 0 2 tcp 1040 ------- 1 0.0 4.0 12 27
- 5.056039 0 2 tcp 1040 ------- 1 0.0 4.0 12 27
5.05604  0  0  4  0  maxseq_ 12
+ 5.056039 0 2 tcp 1040 ------- 1 0.0 4.0 13 28
5.05604  0  0  4  0  maxseq_ 13
- 5.056041 0 2 tcp 1040 ------- 1 0.0 4.0 13 28
r 5.539 3 5 tcp 40 ---A--- 2 1.0 5.0 0 12
+ 5.539 5 3 ack 40 ------- 2 5.0 1.0 1 29
- 5.539 5 3 ack 40 ------- 2 5.0 1.0 1 29
r 5.556016 0 2 tcp 1040 ------- 1 0.0 4.0 6 21
+ 5.556016 2 3 tcp 1040 ------- 1 0.0 4.0 6 21
- 5.556016 2 3 tcp 1040 ------- 1 0.0 4.0 6 21
r 5.556018 0 2 tcp 1040 ------- 1 0.0 4.0 7 22
+ 5.556018 2 3 tcp 1040 ------- 1 0.0 4.0 7 22
r 5.556024 0 2 tcp 1040 ------- 1 0.0 4.0 8 23
+ 5.556024 2 3 tcp 1040 ------- 1 0.0 4.0 8 23
- 5.556024 2 3 tcp 1040 ------- 1 0.0 4.0 7 22
r 5.556026 0 2 tcp 1040 ------- 1 0.0 4.0 9 24
+ 5.556026 2 3 tcp 1040 ------- 1 0.0 4.0 9 24
r 5.556033 0 2 tcp 1040 ------- 1 0.0 4.0 10 25
+ 5.556033 2 3 tcp 1040 ------- 1 0.0 4.0 10 25
- 5.556033 2 3 tcp 1040 ------- 1 0.0 4.0 8 23
r 5.556035 0 2 tcp 1040 ------- 1 0.0 4.0 11 26
+ 5.556035 2 3 tcp 1040 ------- 1 0.0 4.0 11 26
r 5.556041 0 2 tcp 1040 ------- 1 0.0 4.0 12 27
+ 5.556041 2 3 tcp 1040 ------- 1 0.0 4.0 12 27
d 5.556041 2 3 tcp 1040 ------- 1 0.0 4.0 12 27
- 5.556041 2 3 tcp 1040 ------- 1 0.0 4.0 9 24
r 5.556043 0 2 tcp 1040 ------- 1 0.0 4.0 13 28
+ 5.556043 2 3 tcp 1040 ------- 1 0.0 4.0 13 28
- 5.556049 2 3 tcp 1040 ------- 1 0.0 4.0 10 25
- 5.556058 2 3 tcp 1040 ------- 1 0.0 4.0 11 26
- 5.556066 2 3 tcp 1040 ------- 1 0.0 4.0 13 28
r 5.595024 2 3 tcp 1040 ------- 1 0.0 4.0 6 21
+ 5.595024 3 4 tcp 1040 ------- 1 0.0 4.0 6 21
- 5.595024 3 4 tcp 1040 ------- 1 0.0 4.0 6 21
r 5.595033 2 3 tcp 1040 ------- 1 0.0 4.0 7 22
+ 5.595033 3 4 tcp 1040 ------- 1 0.0 4.0 7 22
- 5.595033 3 4 tcp 1040 ------- 1 0.0 4.0 7 22
r 5.595041 2 3 tcp 1040 ------- 1 0.0 4.0 8 23
+ 5.595041 3 4 tcp 1040 ------- 1 0.0 4.0 8 23
- 5.595041 3 4 tcp 1040 ------- 1 0.0 4.0 8 23
r 5.595049 2 3 tcp 1040 ------- 1 0.0 4.0 9 24
+ 5.595049 3 4 tcp 1040 ------- 1 0.0 4.0 9 24
- 5.595049 3 4 tcp 1040 ------- 1 0.0 4.0 9 24
r 5.595058 2 3 tcp 1040 ------- 1 0.0 4.0 10 25
+ 5.595058 3 4 tcp 1040 ------- 1 0.0 4.0 10 25
- 5.595058 3 4 tcp 1040 ------- 1 0.0 4.0 10 25
r 5.595066 2 3 tcp 1040 ------- 1 0.0 4.0 11 26
+ 5.595066 3 4 tcp 1040 ------- 1 0.0 4.0 11 26
- 5.595066 3 4 tcp 1040 ------- 1 0.0 4.0 11 26
r 5.595074 2 3 tcp 1040 ------- 1 0.0 4.0 13 28
+ 5.595074 3 4 tcp 1040 ------- 1 0.0 4.0 13 28
- 5.595074 3 4 tcp 1040 ------- 1 0.0 4.0 13 28
r 5.817013 3 5 tcp 1040 ------- 2 1.0 5.0 1 17
+ 5.817013 5 3 ack 40 ------- 2 5.0 1.0 1 30
- 5.817013 5 3 ack 40 ------- 2 5.0 1.0 1 30
r 5.817022 3 5 tcp 1040 ------- 2 1.0 5.0 2 18
+ 5.817022 5 3 ack 40 ------- 2 5.0 1.0 2 31
- 5.817022 5 3 ack 40 ------- 2 5.0 1.0 2 31
r 5.81703 3 5 tcp 1040 ------- 2 1.0 5.0 3 19
+ 5.81703 5 3 ack 40 ------- 2 5.0 1.0 3 32
- 5.81703 5 3 ack 40 ------- 2 5.0 1.0 3 32
r 5.817038 3 5 tcp 1040 ------- 2 1.0 5.0 4 20
+ 5.817038 5 3 ack 40 ------- 2 5.0 1.0 4 33
- 5.817038 5 3 ack 40 ------- 2 5.0 1.0 4 33
r 6.095026 3 4 tcp 1040 ------- 1 0.0 4.0 6 21
+ 6.095026 4 3 ack 40 ------- 1 4.0 0.0 6 34
- 6.095026 4 3 ack 40 ------- 1 4.0 0.0 6 34
r 6.095035 3 4 tcp 1040 ------- 1 0.0 4.0 7 22
+ 6.095035 4 3 ack 40 ------- 1 4.0 0.0 7 35
- 6.095035 4 3 ack 40 ------- 1 4.0 0.0 7 35
r 6.095043 3 4 tcp 1040 ------- 1 0.0 4.0 8 23
+ 6.095043 4 3 ack 40 ------- 1 4.0 0.0 8 36
- 6.095043 4 3 ack 40 ------- 1 4.0 0.0 8 36
r 6.095051 3 4 tcp 1040 ------- 1 0.0 4.0 9 24
+ 6.095051 4 3 ack 40 ------- 1 4.0 0.0 9 37
- 6.095051 4 3 ack 40 ------- 1 4.0 0.0 9 37
r 6.09506 3 4 tcp 1040 ------- 1 0.0 4.0 10 25
+ 6.09506 4 3 ack 40 ------- 1 4.0 0.0 10 38
- 6.09506 4 3 ack 40 ------- 1 4.0 0.0 10 38
r 6.095068 3 4 tcp 1040 ------- 1 0.0 4.0 11 26
+ 6.095068 4 3 ack 40 ------- 1 4.0 0.0 11 39
- 6.095068 4 3 ack 40 ------- 1 4.0 0.0 11 39
r 6.095076 3 4 tcp 1040 ------- 1 0.0 4.0 13 28
+ 6.095076 4 3 ack 48 ------- 1 4.0 0.0 11 40
- 6.095076 4 3 ack 48 ------- 1 4.0 0.0 11 40
r 6.339001 5 3 ack 40 ------- 2 5.0 1.0 1 29
+ 6.339001 3 2 ack 40 ------- 2 5.0 1.0 1 29
- 6.339001 3 2 ack 40 ------- 2 5.0 1.0 1 29
r 6.378001 3 2 ack 40 ------- 2 5.0 1.0 1 29
+ 6.378001 2 1 ack 40 ------- 2 5.0 1.0 1 29
- 6.378001 2 1 ack 40 ------- 2 5.0 1.0 1 29
r 6.595026 4 3 ack 40 ------- 1 4.0 0.0 6 34
+ 6.595026 3 2 ack 40 ------- 1 4.0 0.0 6 34
- 6.595026 3 2 ack 40 ------- 1 4.0 0.0 6 34
r 6.595035 4 3 ack 40 ------- 1 4.0 0.0 7 35
+ 6.595035 3 2 ack 40 ------- 1 4.0 0.0 7 35
- 6.595035 3 2 ack 40 ------- 1 4.0 0.0 7 35
r 6.595043 4 3 ack 40 ------- 1 4.0 0.0 8 36
+ 6.595043 3 2 ack 40 ------- 1 4.0 0.0 8 36
- 6.595043 3 2 ack 40 ------- 1 4.0 0.0 8 36
r 6.595051 4 3 ack 40 ------- 1 4.0 0.0 9 37
+ 6.595051 3 2 ack 40 ------- 1 4.0 0.0 9 37
- 6.595051 3 2 ack 40 ------- 1 4.0 0.0 9 37
r 6.59506 4 3 ack 40 ------- 1 4.0 0.0 10 38
+ 6.59506 3 2 ack 40 ------- 1 4.0 0.0 10 38
- 6.59506 3 2 ack 40 ------- 1 4.0 0.0 10 38
r 6.595068 4 3 ack 40 ------- 1 4.0 0.0 11 39
+ 6.595068 3 2 ack 40 ------- 1 4.0 0.0 11 39
- 6.595068 3 2 ack 40 ------- 1 4.0 0.0 11 39
r 6.595076 4 3 ack 48 ------- 1 4.0 0.0 11 40
+ 6.595076 3 2 ack 48 ------- 1 4.0 0.0 11 40
- 6.595076 3 2 ack 48 ------- 1 4.0 0.0 11 40
r 6.617014 5 3 ack 40 ------- 2 5.0 1.0 1 30
+ 6.617014 3 2 ack 40 ------- 2 5.0 1.0 1 30
- 6.617014 3 2 ack 40 ------- 2 5.0 1.0 1 30
r 6.617022 5 3 ack 40 ------- 2 5.0 1.0 2 31
+ 6.617022 3 2 ack 40 ------- 2 5.0 1.0 2 31
- 6.617022 3 2 ack 40 ------- 2 5.0 1.0 2 31
r 6.61703 5 3 ack 40 ------- 2 5.0 1.0 3 32
+ 6.61703 3 2 ack 40 ------- 2 5.0 1.0 3 32
- 6.61703 3 2 ack 40 ------- 2 5.0 1.0 3 32
r 6.617038 5 3 ack 40 ------- 2 5.0 1.0 4 33
+ 6.617038 3 2 ack 40 ------- 2 5.0 1.0 4 33
- 6.617038 3 2 ack 40 ------- 2 5.0 1.0 4 33
r 6.634027 3 2 ack 40 ------- 1 4.0 0.0 6 34
+ 6.634027 2 0 ack 40 ------- 1 4.0 0.0 6 34
- 6.634027 2 0 ack 40 ------- 1 4.0 0.0 6 34
r 6.634035 3 2 ack 40 ------- 1 4.0 0.0 7 35
+ 6.634035 2 0 ack 40 ------- 1 4.0 0.0 7 35
- 6.634035 2 0 ack 40 ------- 1 4.0 0.0 7 35
r 6.634043 3 2 ack 40 ------- 1 4.0 0.0 8 36
+ 6.634043 2 0 ack 40 ------- 1 4.0 0.0 8 36
- 6.634043 2 0 ack 40 ------- 1 4.0 0.0 8 36
r 6.634052 3 2 ack 40 ------- 1 4.0 0.0 9 37
+ 6.634052 2 0 ack 40 ------- 1 4.0 0.0 9 37
- 6.634052 2 0 ack 40 ------- 1 4.0 0.0 9 37
r 6.63406 3 2 ack 40 ------- 1 4.0 0.0 10 38
+ 6.63406 2 0 ack 40 ------- 1 4.0 0.0 10 38
- 6.63406 2 0 ack 40 ------- 1 4.0 0.0 10 38
r 6.634068 3 2 ack 40 ------- 1 4.0 0.0 11 39
+ 6.634068 2 0 ack 40 ------- 1 4.0 0.0 11 39
- 6.634068 2 0 ack 40 ------- 1 4.0 0.0 11 39
r 6.634077 3 2 ack 48 ------- 1 4.0 0.0 11 40
+ 6.634077 2 0 ack 48 ------- 1 4.0 0.0 11 40
- 6.634077 2 0 ack 48 ------- 1 4.0 0.0 11 40
r 6.656014 3 2 ack 40 ------- 2 5.0 1.0 1 30
+ 6.656014 2 1 ack 40 ------- 2 5.0 1.0 1 30
- 6.656014 2 1 ack 40 ------- 2 5.0 1.0 1 30
r 6.656022 3 2 ack 40 ------- 2 5.0 1.0 2 31
+ 6.656022 2 1 ack 40 ------- 2 5.0 1.0 2 31
- 6.656022 2 1 ack 40 ------- 2 5.0 1.0 2 31
r 6.65603 3 2 ack 40 ------- 2 5.0 1.0 3 32
+ 6.65603 2 1 ack 40 ------- 2 5.0 1.0 3 32
- 6.65603 2 1 ack 40 ------- 2 5.0 1.0 3 32
r 6.656039 3 2 ack 40 ------- 2 5.0 1.0 4 33
+ 6.656039 2 1 ack 40 ------- 2 5.0 1.0 4 33
- 6.656039 2 1 ack 40 ------- 2 5.0 1.0 4 33
r 7.134027 2 0 ack 40 ------- 1 4.0 0.0 6 34
7.13403  0  0  4  0  ack_ 6
7.13403  0  0  4  0  cwnd_ 9.000 
+ 7.134027 0 2 tcp 1040 ------- 1 0.0 4.0 14 41
- 7.134027 0 2 tcp 1040 ------- 1 0.0 4.0 14 41
7.13403  0  0  4  0  maxseq_ 14
+ 7.134027 0 2 tcp 1040 ------- 1 0.0 4.0 15 42
7.13403  0  0  4  0  maxseq_ 15
- 7.134029 0 2 tcp 1040 ------- 1 0.0 4.0 15 42
r 7.134035 2 0 ack 40 ------- 1 4.0 0.0 7 35
7.13404  0  0  4  0  ack_ 7
7.13404  0  0  4  0  cwnd_ 10.000
+ 7.134035 0 2 tcp 1040 ------- 1 0.0 4.0 16 43
- 7.134035 0 2 tcp 1040 ------- 1 0.0 4.0 16 43
7.13404  0  0  4  0  maxseq_ 16
+ 7.134035 0 2 tcp 1040 ------- 1 0.0 4.0 17 44
7.13404  0  0  4  0  maxseq_ 17
- 7.134037 0 2 tcp 1040 ------- 1 0.0 4.0 17 44
r 7.134044 2 0 ack 40 ------- 1 4.0 0.0 8 36
7.13404  0  0  4  0  ack_ 8
7.13404  0  0  4  0  cwnd_ 11.000
+ 7.134044 0 2 tcp 1040 ------- 1 0.0 4.0 18 45
- 7.134044 0 2 tcp 1040 ------- 1 0.0 4.0 18 45
7.13404  0  0  4  0  maxseq_ 18
+ 7.134044 0 2 tcp 1040 ------- 1 0.0 4.0 19 46
7.13404  0  0  4  0  maxseq_ 19
- 7.134046 0 2 tcp 1040 ------- 1 0.0 4.0 19 46
r 7.134052 2 0 ack 40 ------- 1 4.0 0.0 9 37
7.13405  0  0  4  0  ack_ 9
7.13405  0  0  4  0  cwnd_ 12.000
+ 7.134052 0 2 tcp 1040 ------- 1 0.0 4.0 20 47
- 7.134052 0 2 tcp 1040 ------- 1 0.0 4.0 20 47
7.13405  0  0  4  0  maxseq_ 20
+ 7.134052 0 2 tcp 1040 ------- 1 0.0 4.0 21 48
7.13405  0  0  4  0  maxseq_ 21
- 7.134054 0 2 tcp 1040 ------- 1 0.0 4.0 21 48
r 7.13406 2 0 ack 40 ------- 1 4.0 0.0 10 38
7.13406  0  0  4  0  ack_ 10
7.13406  0  0  4  0  cwnd_ 13.000
+ 7.13406 0 2 tcp 1040 ------- 1 0.0 4.0 22 49
- 7.13406 0 2 tcp 1040 ------- 1 0.0 4.0 22 49
7.13406  0  0  4  0  maxseq_ 22
+ 7.13406 0 2 tcp 1040 ------- 1 0.0 4.0 23 50
7.13406  0  0  4  0  maxseq_ 23
- 7.134062 0 2 tcp 1040 ------- 1 0.0 4.0 23 50
r 7.134068 2 0 ack 40 ------- 1 4.0 0.0 11 39
7.13407  0  0  4  0  ack_ 11
7.13407  0  0  4  0  cwnd_ 14.000
+ 7.134068 0 2 tcp 1040 ------- 1 0.0 4.0 24 51
- 7.134068 0 2 tcp 1040 ------- 1 0.0 4.0 24 51
7.13407  0  0  4  0  maxseq_ 24
+ 7.134068 0 2 tcp 1040 ------- 1 0.0 4.0 25 52
7.13407  0  0  4  0  maxseq_ 25
- 7.134071 0 2 tcp 1040 ------- 1 0.0 4.0 25 52
r 7.134077 2 0 ack 48 ------- 1 4.0 0.0 11 40
+ 7.134077 0 2 tcp 1040 ------- 1 0.0 4.0 26 53
- 7.134077 0 2 tcp 1040 ------- 1 0.0 4.0 26 53
7.13408  0  0  4  0  maxseq_ 26
r 7.178001 2 1 ack 40 ------- 2 5.0 1.0 1 29
r 7.456014 2 1 ack 40 ------- 2 5.0 1.0 1 30
r 7.456022 2 1 ack 40 ------- 2 5.0 1.0 2 31
7.45602  1  0  5  0  ack_ 2
7.45602  1  0  5  0  rtt_ 3.278 
+ 7.456022 1 2 tcp 1040 ------- 2 1.0 5.0 5 54
- 7.456022 1 2 tcp 1040 ------- 2 1.0 5.0 5 54
7.45602  1  0  5  0  maxseq_ 5
r 7.456031 2 1 ack 40 ------- 2 5.0 1.0 3 32
7.45603  1  0  5  0  ack_ 3
+ 7.456031 1 2 tcp 1040 ------- 2 1.0 5.0 6 55
- 7.456031 1 2 tcp 1040 ------- 2 1.0 5.0 6 55
7.45603  1  0  5  0  maxseq_ 6
r 7.456039 2 1 ack 40 ------- 2 5.0 1.0 4 33
7.45604  1  0  5  0  ack_ 4
+ 7.456039 1 2 tcp 1040 ------- 2 1.0 5.0 7 56
- 7.456039 1 2 tcp 1040 ------- 2 1.0 5.0 7 56
7.45604  1  0  5  0  maxseq_ 7
r 7.634029 0 2 tcp 1040 ------- 1 0.0 4.0 14 41
+ 7.634029 2 3 tcp 1040 ------- 1 0.0 4.0 14 41
- 7.634029 2 3 tcp 1040 ------- 1 0.0 4.0 14 41
r 7.634031 0 2 tcp 1040 ------- 1 0.0 4.0 15 42
+ 7.634031 2 3 tcp 1040 ------- 1 0.0 4.0 15 42
r 7.634037 0 2 tcp 1040 ------- 1 0.0 4.0 16 43
+ 7.634037 2 3 tcp 1040 ------- 1 0.0 4.0 16 43
- 7.634037 2 3 tcp 1040 ------- 1 0.0 4.0 15 42
r 7.634039 0 2 tcp 1040 ------- 1 0.0 4.0 17 44
+ 7.634039 2 3 tcp 1040 ------- 1 0.0 4.0 17 44
r 7.634046 0 2 tcp 1040 ------- 1 0.0 4.0 18 45
+ 7.634046 2 3 tcp 1040 ------- 1 0.0 4.0 18 45
- 7.634046 2 3 tcp 1040 ------- 1 0.0 4.0 16 43
r 7.634048 0 2 tcp 1040 ------- 1 0.0 4.0 19 46
+ 7.634048 2 3 tcp 1040 ------- 1 0.0 4.0 19 46
r 7.634054 0 2 tcp 1040 ------- 1 0.0 4.0 20 47
+ 7.634054 2 3 tcp 1040 ------- 1 0.0 4.0 20 47
d 7.634054 2 3 tcp 1040 ------- 1 0.0 4.0 20 47
- 7.634054 2 3 tcp 1040 ------- 1 0.0 4.0 17 44
r 7.634056 0 2 tcp 1040 ------- 1 0.0 4.0 21 48
+ 7.634056 2 3 tcp 1040 ------- 1 0.0 4.0 21 48
r 7.634062 0 2 tcp 1040 ------- 1 0.0 4.0 22 49
+ 7.634062 2 3 tcp 1040 ------- 1 0.0 4.0 22 49
d 7.634062 2 3 tcp 1040 ------- 1 0.0 4.0 22 49
- 7.634062 2 3 tcp 1040 ------- 1 0.0 4.0 18 45
r 7.634064 0 2 tcp 1040 ------- 1 0.0 4.0 23 50
+ 7.634064 2 3 tcp 1040 ------- 1 0.0 4.0 23 50
r 7.634071 0 2 tcp 1040 ------- 1 0.0 4.0 24 51
+ 7.634071 2 3 tcp 1040 ------- 1 0.0 4.0 24 51
d 7.634071 2 3 tcp 1040 ------- 1 0.0 4.0 24 51
- 7.634071 2 3 tcp 1040 ------- 1 0.0 4.0 19 46
r 7.634073 0 2 tcp 1040 ------- 1 0.0 4.0 25 52
+ 7.634073 2 3 tcp 1040 ------- 1 0.0 4.0 25 52
- 7.634079 2 3 tcp 1040 ------- 1 0.0 4.0 21 48
r 7.634079 0 2 tcp 1040 ------- 1 0.0 4.0 26 53
+ 7.634079 2 3 tcp 1040 ------- 1 0.0 4.0 26 53
- 7.634087 2 3 tcp 1040 ------- 1 0.0 4.0 23 50
- 7.634096 2 3 tcp 1040 ------- 1 0.0 4.0 25 52
- 7.634104 2 3 tcp 1040 ------- 1 0.0 4.0 26 53
r 7.673037 2 3 tcp 1040 ------- 1 0.0 4.0 14 41
+ 7.673037 3 4 tcp 1040 ------- 1 0.0 4.0 14 41
- 7.673037 3 4 tcp 1040 ------- 1 0.0 4.0 14 41
r 7.673046 2 3 tcp 1040 ------- 1 0.0 4.0 15 42
+ 7.673046 3 4 tcp 1040 ------- 1 0.0 4.0 15 42
- 7.673046 3 4 tcp 1040 ------- 1 0.0 4.0 15 42
r 7.673054 2 3 tcp 1040 ------- 1 0.0 4.0 16 43
+ 7.673054 3 4 tcp 1040 ------- 1 0.0 4.0 16 43
- 7.673054 3 4 tcp 1040 ------- 1 0.0 4.0 16 43
r 7.673062 2 3 tcp 1040 ------- 1 0.0 4.0 17 44
+ 7.673062 3 4 tcp 1040 ------- 1 0.0 4.0 17 44
- 7.673062 3 4 tcp 1040 ------- 1 0.0 4.0 17 44
r 7.673071 2 3 tcp 1040 ------- 1 0.0 4.0 18 45
+ 7.673071 3 4 tcp 1040 ------- 1 0.0 4.0 18 45
- 7.673071 3 4 tcp 1040 ------- 1 0.0 4.0 18 45
r 7.673079 2 3 tcp 1040 ------- 1 0.0 4.0 19 46
+ 7.673079 3 4 tcp 1040 ------- 1 0.0 4.0 19 46
- 7.673079 3 4 tcp 1040 ------- 1 0.0 4.0 19 46
r 7.673087 2 3 tcp 1040 ------- 1 0.0 4.0 21 48
+ 7.673087 3 4 tcp 1040 ------- 1 0.0 4.0 21 48
- 7.673087 3 4 tcp 1040 ------- 1 0.0 4.0 21 48
r 7.673096 2 3 tcp 1040 ------- 1 0.0 4.0 23 50
+ 7.673096 3 4 tcp 1040 ------- 1 0.0 4.0 23 50
- 7.673096 3 4 tcp 1040 ------- 1 0.0 4.0 23 50
r 7.673104 2 3 tcp 1040 ------- 1 0.0 4.0 25 52
+ 7.673104 3 4 tcp 1040 ------- 1 0.0 4.0 25 52
- 7.673104 3 4 tcp 1040 ------- 1 0.0 4.0 25 52
r 7.673112 2 3 tcp 1040 ------- 1 0.0 4.0 26 53
+ 7.673112 3 4 tcp 1040 ------- 1 0.0 4.0 26 53
- 7.673112 3 4 tcp 1040 ------- 1 0.0 4.0 26 53
r 8.173039 3 4 tcp 1040 ------- 1 0.0 4.0 14 41
+ 8.173039 4 3 ack 48 ------- 1 4.0 0.0 11 57
- 8.173039 4 3 ack 48 ------- 1 4.0 0.0 11 57
r 8.173048 3 4 tcp 1040 ------- 1 0.0 4.0 15 42
+ 8.173048 4 3 ack 48 ------- 1 4.0 0.0 11 58
- 8.173048 4 3 ack 48 ------- 1 4.0 0.0 11 58
r 8.173056 3 4 tcp 1040 ------- 1 0.0 4.0 16 43
+ 8.173056 4 3 ack 48 ------- 1 4.0 0.0 11 59
- 8.173056 4 3 ack 48 ------- 1 4.0 0.0 11 59
r 8.173064 3 4 tcp 1040 ------- 1 0.0 4.0 17 44
+ 8.173064 4 3 ack 48 ------- 1 4.0 0.0 11 60
- 8.173064 4 3 ack 48 ------- 1 4.0 0.0 11 60
r 8.173073 3 4 tcp 1040 ------- 1 0.0 4.0 18 45
+ 8.173073 4 3 ack 48 ------- 1 4.0 0.0 11 61
- 8.173073 4 3 ack 48 ------- 1 4.0 0.0 11 61
r 8.173081 3 4 tcp 1040 ------- 1 0.0 4.0 19 46
+ 8.173081 4 3 ack 48 ------- 1 4.0 0.0 11 62
- 8.173081 4 3 ack 48 ------- 1 4.0 0.0 11 62
r 8.173089 3 4 tcp 1040 ------- 1 0.0 4.0 21 48
+ 8.173089 4 3 ack 56 ------- 1 4.0 0.0 11 63
- 8.173089 4 3 ack 56 ------- 1 4.0 0.0 11 63
r 8.173098 3 4 tcp 1040 ------- 1 0.0 4.0 23 50
+ 8.173098 4 3 ack 64 ------- 1 4.0 0.0 11 64
- 8.173098 4 3 ack 64 ------- 1 4.0 0.0 11 64
r 8.173106 3 4 tcp 1040 ------- 1 0.0 4.0 25 52
+ 8.173106 4 3 ack 64 ------- 1 4.0 0.0 11 65
- 8.173106 4 3 ack 64 ------- 1 4.0 0.0 11 65
r 8.173114 3 4 tcp 1040 ------- 1 0.0 4.0 26 53
+ 8.173114 4 3 ack 64 ------- 1 4.0 0.0 11 66
- 8.173114 4 3 ack 64 ------- 1 4.0 0.0 11 66
r 8.256024 1 2 tcp 1040 ------- 2 1.0 5.0 5 54
+ 8.256024 2 3 tcp 1040 ------- 2 1.0 5.0 5 54
- 8.256024 2 3 tcp 1040 ------- 2 1.0 5.0 5 54
r 8.256033 1 2 tcp 1040 ------- 2 1.0 5.0 6 55
+ 8.256033 2 3 tcp 1040 ------- 2 1.0 5.0 6 55
- 8.256033 2 3 tcp 1040 ------- 2 1.0 5.0 6 55
r 8.256041 1 2 tcp 1040 ------- 2 1.0 5.0 7 56
+ 8.256041 2 3 tcp 1040 ------- 2 1.0 5.0 7 56
- 8.256041 2 3 tcp 1040 ------- 2 1.0 5.0 7 56
r 8.295033 2 3 tcp 1040 ------- 2 1.0 5.0 5 54
+ 8.295033 3 5 tcp 1040 ------- 2 1.0 5.0 5 54
- 8.295033 3 5 tcp 1040 ------- 2 1.0 5.0 5 54
r 8.295041 2 3 tcp 1040 ------- 2 1.0 5.0 6 55
+ 8.295041 3 5 tcp 1040 ------- 2 1.0 5.0 6 55
- 8.295041 3 5 tcp 1040 ------- 2 1.0 5.0 6 55
r 8.295049 2 3 tcp 1040 ------- 2 1.0 5.0 7 56
+ 8.295049 3 5 tcp 1040 ------- 2 1.0 5.0 7 56
- 8.295049 3 5 tcp 1040 ------- 2 1.0 5.0 7 56
r 8.673039 4 3 ack 48 ------- 1 4.0 0.0 11 57
+ 8.673039 3 2 ack 48 ------- 1 4.0 0.0 11 57
- 8.673039 3 2 ack 48 ------- 1 4.0 0.0 11 57
r 8.673048 4 3 ack 48 ------- 1 4.0 0.0 11 58
+ 8.673048 3 2 ack 48 ------- 1 4.0 0.0 11 58
- 8.673048 3 2 ack 48 ------- 1 4.0 0.0 11 58
r 8.673056 4 3 ack 48 ------- 1 4.0 0.0 11 59
+ 8.673056 3 2 ack 48 ------- 1 4.0 0.0 11 59
- 8.673056 3 2 ack 48 ------- 1 4.0 0.0 11 59
r 8.673064 4 3 ack 48 ------- 1 4.0 0.0 11 60
+ 8.673064 3 2 ack 48 ------- 1 4.0 0.0 11 60
- 8.673064 3 2 ack 48 ------- 1 4.0 0.0 11 60
r 8.673073 4 3 ack 48 ------- 1 4.0 0.0 11 61
+ 8.673073 3 2 ack 48 ------- 1 4.0 0.0 11 61
- 8.673073 3 2 ack 48 ------- 1 4.0 0.0 11 61
r 8.673081 4 3 ack 48 ------- 1 4.0 0.0 11 62
+ 8.673081 3 2 ack 48 ------- 1 4.0 0.0 11 62
- 8.673081 3 2 ack 48 ------- 1 4.0 0.0 11 62
r 8.673089 4 3 ack 56 ------- 1 4.0 0.0 11 63
+ 8.673089 3 2 ack 56 ------- 1 4.0 0.0 11 63
- 8.673089 3 2 ack 56 ------- 1 4.0 0.0 11 63
r 8.673098 4 3 ack 64 ------- 1 4.0 0.0 11 64
+ 8.673098 3 2 ack 64 ------- 1 4.0 0.0 11 64
- 8.673098 3 2 ack 64 ------- 1 4.0 0.0 11 64
r 8.673106 4 3 ack 64 ------- 1 4.0 0.0 11 65
+ 8.673106 3 2 ack 64 ------- 1 4.0 0.0 11 65
- 8.673106 3 2 ack 64 ------- 1 4.0 0.0 11 65
r 8.673114 4 3 ack 64 ------- 1 4.0 0.0 11 66
+ 8.673114 3 2 ack 64 ------- 1 4.0 0.0 11 66
- 8.673114 3 2 ack 64 ------- 1 4.0 0.0 11 66
r 8.71204 3 2 ack 48 ------- 1 4.0 0.0 11 57
+ 8.71204 2 0 ack 48 ------- 1 4.0 0.0 11 57
- 8.71204 2 0 ack 48 ------- 1 4.0 0.0 11 57
r 8.712048 3 2 ack 48 ------- 1 4.0 0.0 11 58
+ 8.712048 2 0 ack 48 ------- 1 4.0 0.0 11 58
- 8.712048 2 0 ack 48 ------- 1 4.0 0.0 11 58
r 8.712056 3 2 ack 48 ------- 1 4.0 0.0 11 59
+ 8.712056 2 0 ack 48 ------- 1 4.0 0.0 11 59
- 8.712056 2 0 ack 48 ------- 1 4.0 0.0 11 59
r 8.712065 3 2 ack 48 ------- 1 4.0 0.0 11 60
+ 8.712065 2 0 ack 48 ------- 1 4.0 0.0 11 60
- 8.712065 2 0 ack 48 ------- 1 4.0 0.0 11 60
r 8.712073 3 2 ack 48 ------- 1 4.0 0.0 11 61
+ 8.712073 2 0 ack 48 ------- 1 4.0 0.0 11 61
- 8.712073 2 0 ack 48 ------- 1 4.0 0.0 11 61
r 8.712081 3 2 ack 48 ------- 1 4.0 0.0 11 62
+ 8.712081 2 0 ack 48 ------- 1 4.0 0.0 11 62
- 8.712081 2 0 ack 48 ------- 1 4.0 0.0 11 62
r 8.71209 3 2 ack 56 ------- 1 4.0 0.0 11 63
+ 8.71209 2 0 ack 56 ------- 1 4.0 0.0 11 63
- 8.71209 2 0 ack 56 ------- 1 4.0 0.0 11 63
r 8.712098 3 2 ack 64 ------- 1 4.0 0.0 11 64
+ 8.712098 2 0 ack 64 ------- 1 4.0 0.0 11 64
- 8.712098 2 0 ack 64 ------- 1 4.0 0.0 11 64
r 8.712107 3 2 ack 64 ------- 1 4.0 0.0 11 65
+ 8.712107 2 0 ack 64 ------- 1 4.0 0.0 11 65
- 8.712107 2 0 ack 64 ------- 1 4.0 0.0 11 65
r 8.712115 3 2 ack 64 ------- 1 4.0 0.0 11 66
+ 8.712115 2 0 ack 64 ------- 1 4.0 0.0 11 66
- 8.712115 2 0 ack 64 ------- 1 4.0 0.0 11 66
r 9.095035 3 5 tcp 1040 ------- 2 1.0 5.0 5 54
+ 9.095035 5 3 ack 40 ------- 2 5.0 1.0 5 67
- 9.095035 5 3 ack 40 ------- 2 5.0 1.0 5 67
r 9.095043 3 5 tcp 1040 ------- 2 1.0 5.0 6 55
+ 9.095043 5 3 ack 40 ------- 2 5.0 1.0 6 68
- 9.095043 5 3 ack 40 ------- 2 5.0 1.0 6 68
r 9.095051 3 5 tcp 1040 ------- 2 1.0 5.0 7 56
+ 9.095051 5 3 ack 40 ------- 2 5.0 1.0 7 69
- 9.095051 5 3 ack 40 ------- 2 5.0 1.0 7 69
r 9.21204 2 0 ack 48 ------- 1 4.0 0.0 11 57
+ 9.21204 0 2 tcp 1040 ------- 1 0.0 4.0 27 70
- 9.21204 0 2 tcp 1040 ------- 1 0.0 4.0 27 70
9.21204  0  0  4  0  maxseq_ 27
r 9.212048 2 0 ack 48 ------- 1 4.0 0.0 11 58
+ 9.212048 0 2 tcp 1040 ------- 1 0.0 4.0 28 71
- 9.212048 0 2 tcp 1040 ------- 1 0.0 4.0 28 71
9.21205  0  0  4  0  maxseq_ 28
r 9.212057 2 0 ack 48 ------- 1 4.0 0.0 11 59
9.21206  0  0  4  0  ssthresh_ 11
+ 9.212057 0 2 tcp 1040 ---A--- 1 0.0 4.0 12 72
- 9.212057 0 2 tcp 1040 ---A--- 1 0.0 4.0 12 72
r 9.212065 2 0 ack 48 ------- 1 4.0 0.0 11 60
9.21206  0  0  4  0  cwnd_ 12.000
r 9.212073 2 0 ack 48 ------- 1 4.0 0.0 11 61