0.00000  0  0  4  0  cwnd_ 2.000 
0.00000  0  0  4  0  ssthresh_ 20
0.00000  0  0  4  0  ack_ -1
0.00000  0  0  4  0  maxseq_ -1
0.00000  0  0  4  0  rtt_ 0.000 
0.00000  1  0  5  0  cwnd_ 2.000 
0.00000  1  0  5  0  ssthresh_ 20
0.00000  1  0  5  0  ack_ -1
0.00000  1  0  5  0  maxseq_ -1
0.00000  1  0  5  0  rtt_ 0.000 
0.00000  0  0  4  0  ssthresh_ 752
0.00000  1  0  5  0  ssthresh_ 852
+ 0.3 0 2 tcp 40 ------- 1 0.0 4.0 0 0
- 0.3 0 2 tcp 40 ------- 1 0.0 4.0 0 0
0.30000  0  0  4  0  maxseq_ 0
+ 0.3 0 2 tcp 1040 ------- 1 0.0 4.0 1 1
0.30000  0  0  4  0  maxseq_ 1
+ 0.3 1 2 tcp 40 ------- 2 1.0 5.0 0 2
- 0.3 1 2 tcp 40 ------- 2 1.0 5.0 0 2
0.30000  1  0  5  0  maxseq_ 0
+ 0.3 1 2 tcp 1040 ------- 2 1.0 5.0 1 3
0.30000  1  0  5  0  maxseq_ 1
- 0.3 0 2 tcp 1040 ------- 1 0.0 4.0 1 1
- 0.3 1 2 tcp 1040 ------- 2 1.0 5.0 1 3
r 0.8 0 2 tcp 40 ------- 1 0.0 4.0 0 0
+ 0.8 2 3 tcp 40 ------- 1 0.0 4.0 0 0
- 0.8 2 3 tcp 40 ------- 1 0.0 4.0 0 0
r 0.800002 0 2 tcp 1040 ------- 1 0.0 4.0 1 1
+ 0.800002 2 3 tcp 1040 ------- 1 0.0 4.0 1 1
- 0.800002 2 3 tcp 1040 ------- 1 0.0 4.0 1 1
r 0.851 2 3 tcp 40 ------- 1 0.0 4.0 0 0
+ 0.851 3 4 tcp 40 ------- 1 0.0 4.0 0 0
- 0.851 3 4 tcp 40 ------- 1 0.0 4.0 0 0
r 0.85101 2 3 tcp 1040 ------- 1 0.0 4.0 1 1
+ 0.85101 3 4 tcp 1040 ------- 1 0.0 4.0 1 1
- 0.85101 3 4 tcp 1040 ------- 1 0.0 4.0 1 1
r 1.1 1 2 tcp 40 ------- 2 1.0 5.0 0 2
+ 1.1 2 3 tcp 40 ------- 2 1.0 5.0 0 2
- 1.1 2 3 tcp 40 ------- 2 1.0 5.0 0 2
r 1.100002 1 2 tcp 1040 ------- 2 1.0 5.0 1 3
+ 1.100002 2 3 tcp 1040 ------- 2 1.0 5.0 1 3
- 1.100002 2 3 tcp 1040 ------- 2 1.0 5.0 1 3
r 1.151 2 3 tcp 40 ------- 2 1.0 5.0 0 2
+ 1.151 3 5 tcp 40 ------- 2 1.0 5.0 0 2
- 1.151 3 5 tcp 40 ------- 2 1.0 5.0 0 2
r 1.15101 2 3 tcp 1040 ------- 2 1.0 5.0 1 3
+ 1.15101 3 5 tcp 1040 ------- 2 1.0 5.0 1 3
- 1.15101 3 5 tcp 1040 ------- 2 1.0 5.0 1 3
r 1.351 3 4 tcp 40 ------- 1 0.0 4.0 0 0
+ 1.351 4 3 ack 40 ------- 1 4.0 0.0 0 4
- 1.351 4 3 ack 40 ------- 1 4.0 0.0 0 4
r 1.351013 3 4 tcp 1040 ------- 1 0.0 4.0 1 1
+ 1.351013 4 3 ack 40 ------- 1 4.0 0.0 1 5
- 1.351013 4 3 ack 40 ------- 1 4.0 0.0 1 5
r 1.851001 4 3 ack 40 ------- 1 4.0 0.0 0 4
+ 1.851001 3 2 ack 40 ------- 1 4.0 0.0 0 4
- 1.851001 3 2 ack 40 ------- 1 4.0 0.0 0 4
r 1.851013 4 3 ack 40 ------- 1 4.0 0.0 1 5
+ 1.851013 3 2 ack 40 ------- 1 4.0 0.0 1 5
- 1.851013 3 2 ack 40 ------- 1 4.0 0.0 1 5
r 1.902001 3 2 ack 40 ------- 1 4.0 0.0 0 4
+ 1.902001 2 0 ack 40 ------- 1 4.0 0.0 0 4
- 1.902001 2 0 ack 40 ------- 1 4.0 0.0 0 4
r 1.902013 3 2 ack 40 ------- 1 4.0 0.0 1 5
+ 1.902013 2 0 ack 40 ------- 1 4.0 0.0 1 5
- 1.902013 2 0 ack 40 ------- 1 4.0 0.0 1 5
r 1.951 3 5 tcp 40 ------- 2 1.0 5.0 0 2
+ 1.951 5 3 ack 40 ------- 2 5.0 1.0 0 6
- 1.951 5 3 ack 40 ------- 2 5.0 1.0 0 6
r 1.951013 3 5 tcp 1040 ------- 2 1.0 5.0 1 3
+ 1.951013 5 3 ack 40 ------- 2 5.0 1.0 1 7
- 1.951013 5 3 ack 40 ------- 2 5.0 1.0 1 7
r 2.402001 2 0 ack 40 ------- 1 4.0 0.0 0 4
2.40200  0  0  4  0  ack_ 0
2.40200  0  0  4  0  rtt_ 2.102 
2.40200  0  0  4  0  cwnd_ 3.000 
+ 2.402001 0 2 tcp 1040 ------- 1 0.0 4.0 2 8
- 2.402001 0 2 tcp 1040 ------- 1 0.0 4.0 2 8
2.40200  0  0  4  0  maxseq_ 2
+ 2.402001 0 2 tcp 1040 ------- 1 0.0 4.0 3 9
2.40200  0  0  4  0  maxseq_ 3
- 2.402003 0 2 tcp 1040 ------- 1 0.0 4.0 3 9
r 2.402013 2 0 ack 40 ------- 1 4.0 0.0 1 5
2.40201  0  0  4  0  ack_ 1
2.40201  0  0  4  0  cwnd_ 4.000 
+ 2.402013 0 2 tcp 1040 ------- 1 0.0 4.0 4 10
- 2.402013 0 2 tcp 1040 ------- 1 0.0 4.0 4 10
2.40201  0  0  4  0  maxseq_ 4
+ 2.402013 0 2 tcp 1040 ------- 1 0.0 4.0 5 11
2.40201  0  0  4  0  maxseq_ 5
- 2.402015 0 2 tcp 1040 ------- 1 0.0 4.0 5 11
r 2.751001 5 3 ack 40 ------- 2 5.0 1.0 0 6
+ 2.751001 3 2 ack 40 ------- 2 5.0 1.0 0 6
- 2.751001 3 2 ack 40 ------- 2 5.0 1.0 0 6
r 2.751013 5 3 ack 40 ------- 2 5.0 1.0 1 7
+ 2.751013 3 2 ack 40 ------- 2 5.0 1.0 1 7
- 2.751013 3 2 ack 40 ------- 2 5.0 1.0 1 7
r 2.802001 3 2 ack 40 ------- 2 5.0 1.0 0 6
+ 2.802001 2 1 ack 40 ------- 2 5.0 1.0 0 6
- 2.802001 2 1 ack 40 ------- 2 5.0 1.0 0 6
r 2.802013 3 2 ack 40 ------- 2 5.0 1.0 1 7
+ 2.802013 2 1 ack 40 ------- 2 5.0 1.0 1 7
- 2.802013 2 1 ack 40 ------- 2 5.0 1.0 1 7
r 2.902003 0 2 tcp 1040 ------- 1 0.0 4.0 2 8
+ 2.902003 2 3 tcp 1040 ------- 1 0.0 4.0 2 8
- 2.902003 2 3 tcp 1040 ------- 1 0.0 4.0 2 8
r 2.902005 0 2 tcp 1040 ------- 1 0.0 4.0 3 9
+ 2.902005 2 3 tcp 1040 ------- 1 0.0 4.0 3 9
- 2.902011 2 3 tcp 1040 ------- 1 0.0 4.0 3 9
r 2.902015 0 2 tcp 1040 ------- 1 0.0 4.0 4 10
+ 2.902015 2 3 tcp 1040 ------- 1 0.0 4.0 4 10
r 2.902017 0 2 tcp 1040 ------- 1 0.0 4.0 5 11
+ 2.902017 2 3 tcp 1040 ------- 1 0.0 4.0 5 11
- 2.90202 2 3 tcp 1040 ------- 1 0.0 4.0 4 10
- 2.902028 2 3 tcp 1040 ------- 1 0.0 4.0 5 11
r 2.953011 2 3 tcp 1040 ------- 1 0.0 4.0 2 8
+ 2.953011 3 4 tcp 1040 ------- 1 0.0 4.0 2 8
- 2.953011 3 4 tcp 1040 ------- 1 0.0 4.0 2 8
r 2.95302 2 3 tcp 1040 ------- 1 0.0 4.0 3 9
+ 2.95302 3 4 tcp 1040 ------- 1 0.0 4.0 3 9
- 2.95302 3 4 tcp 1040 ------- 1 0.0 4.0 3 9
r 2.953028 2 3 tcp 1040 ------- 1 0.0 4.0 4 10
+ 2.953028 3 4 tcp 1040 ------- 1 0.0 4.0 4 10
- 2.953028 3 4 tcp 1040 ------- 1 0.0 4.0 4 10
r 2.953036 2 3 tcp 1040 ------- 1 0.0 4.0 5 11
+ 2.953036 3 4 tcp 1040 ------- 1 0.0 4.0 5 11
- 2.953036 3 4 tcp 1040 ------- 1 0.0 4.0 5 11
3.30000  1  0  5  0  cwnd_ 1.000 
3.30000  1  0  5  0  ssthresh_ 2
+ 3.3 1 2 tcp 40 ---A--- 2 1.0 5.0 0 12
- 3.3 1 2 tcp 40 ---A--- 2 1.0 5.0 0 12
r 3.453013 3 4 tcp 1040 ------- 1 0.0 4.0 2 8
+ 3.453013 4 3 ack 40 ------- 1 4.0 0.0 2 13
- 3.453013 4 3 ack 40 ------- 1 4.0 0.0 2 13
r 3.453022 3 4 tcp 1040 ------- 1 0.0 4.0 3 9
+ 3.453022 4 3 ack 40 ------- 1 4.0 0.0 3 14
- 3.453022 4 3 ack 40 ------- 1 4.0 0.0 3 14
r 3.45303 3 4 tcp 1040 ------- 1 0.0 4.0 4 10
+ 3.45303 4 3 ack 40 ------- 1 4.0 0.0 4 15
- 3.45303 4 3 ack 40 ------- 1 4.0 0.0 4 15
r 3.453038 3 4 tcp 1040 ------- 1 0.0 4.0 5 11
+ 3.453038 4 3 ack 40 ------- 1 4.0 0.0 5 16
- 3.453038 4 3 ack 40 ------- 1 4.0 0.0 5 16
r 3.602001 2 1 ack 40 ------- 2 5.0 1.0 0 6
3.60200  1  0  5  0  ack_ 0
3.60200  1  0  5  0  cwnd_ 2.000 
+ 3.602001 1 2 tcp 1040 ------- 2 1.0 5.0 1 17
- 3.602001 1 2 tcp 1040 ------- 2 1.0 5.0 1 17
+ 3.602001 1 2 tcp 1040 ------- 2 1.0 5.0 2 18
3.60200  1  0  5  0  maxseq_ 2
- 3.602003 1 2 tcp 1040 ------- 2 1.0 5.0 2 18
r 3.602013 2 1 ack 40 ------- 2 5.0 1.0 1 7
3.60201  1  0  5  0  ack_ 1
3.60201  1  0  5  0  cwnd_ 3.000 
+ 3.602013 1 2 tcp 1040 ------- 2 1.0 5.0 3 19
- 3.602013 1 2 tcp 1040 ------- 2 1.0 5.0 3 19
3.60201  1  0  5  0  maxseq_ 3
+ 3.602013 1 2 tcp 1040 ------- 2 1.0 5.0 4 20
3.60201  1  0  5  0  maxseq_ 4
- 3.602015 1 2 tcp 1040 ------- 2 1.0 5.0 4 20
r 3.953014 4 3 ack 40 ------- 1 4.0 0.0 2 13
+ 3.953014 3 2 ack 40 ------- 1 4.0 0.0 2 13
- 3.953014 3 2 ack 40 ------- 1 4.0 0.0 2 13
r 3.953022 4 3 ack 40 ------- 1 4.0 0.0 3 14
+ 3.953022 3 2 ack 40 ------- 1 4.0 0.0 3 14
- 3.953022 3 2 ack 40 ------- 1 4.0 0.0 3 14
r 3.95303 4 3 ack 40 ------- 1 4.0 0.0 4 15
+ 3.95303 3 2 ack 40 ------- 1 4.0 0.0 4 15
- 3.95303 3 2 ack 40 ------- 1 4.0 0.0 4 15
r 3.953038 4 3 ack 40 ------- 1 4.0 0.0 5 16
+ 3.953038 3 2 ack 40 ------- 1 4.0 0.0 5 16
- 3.953038 3 2 ack 40 ------- 1 4.0 0.0 5 16
r 4.004014 3 2 ack 40 ------- 1 4.0 0.0 2 13
+ 4.004014 2 0 ack 40 ------- 1 4.0 0.0 2 13
- 4.004014 2 0 ack 40 ------- 1 4.0 0.0 2 13
r 4.004022 3 2 ack 40 ------- 1 4.0 0.0 3 14
+ 4.004022 2 0 ack 40 ------- 1 4.0 0.0 3 14
- 4.004022 2 0 ack 40 ------- 1 4.0 0.0 3 14
r 4.00403 3 2 ack 40 ------- 1 4.0 0.0 4 15
+ 4.00403 2 0 ack 40 ------- 1 4.0 0.0 4 15
- 4.00403 2 0 ack 40 ------- 1 4.0 0.0 4 15
r 4.004039 3 2 ack 40 ------- 1 4.0 0.0 5 16
+ 4.004039 2 0 ack 40 ------- 1 4.0 0.0 5 16
- 4.004039 2 0 ack 40 ------- 1 4.0 0.0 5 16
r 4.1 1 2 tcp 40 ---A--- 2 1.0 5.0 0 12
+ 4.1 2 3 tcp 40 ---A--- 2 1.0 5.0 0 12
- 4.1 2 3 tcp 40 ---A--- 2 1.0 5.0 0 12
r 4.151 2 3 tcp 40 ---A--- 2 1.0 5.0 0 12
+ 4.151 3 5 tcp 40 ---A--- 2 1.0 5.0 0 12
- 4.151 3 5 tcp 40 ---A--- 2 1.0 5.0 0 12
r 4.402003 1 2 tcp 1040 ------- 2 1.0 5.0 1 17
+ 4.402003 2 3 tcp 1040 ------- 2 1.0 5.0 1 17
- 4.402003 2 3 tcp 1040 ------- 2 1.0 5.0 1 17
r 4.402005 1 2 tcp 1040 ------- 2 1.0 5.0 2 18
+ 4.402005 2 3 tcp 1040 ------- 2 1.0 5.0 2 18
- 4.402011 2 3 tcp 1040 ------- 2 1.0 5.0 2 18
r 4.402015 1 2 tcp 1040 ------- 2 1.0 5.0 3 19
+ 4.402015 2 3 tcp 1040 ------- 2 1.0 5.0 3 19
r 4.402017 1 2 tcp 1040 ------- 2 1.0 5.0 4 20
+ 4.402017 2 3 tcp 1040 ------- 2 1.0 5.0 4 20
- 4.40202 2 3 tcp 1040 ------- 2 1.0 5.0 3 19
- 4.402028 2 3 tcp 1040 ------- 2 1.0 5.0 4 20
r 4.453011 2 3 tcp 1040 ------- 2 1.0 5.0 1 17
+ 4.453011 3 5 tcp 1040 ------- 2 1.0 5.0 1 17
- 4.453011 3 5 tcp 1040 ------- 2 1.0 5.0 1 17
r 4.45302 2 3 tcp 1040 ------- 2 1.0 5.0 2 18
+ 4.45302 3 5 tcp 1040 ------- 2 1.0 5.0 2 18
- 4.45302 3 5 tcp 1040 ------- 2 1.0 5.0 2 18
r 4.453028 2 3 tcp 1040 ------- 2 1.0 5.0 3 19
+ 4.453028 3 5 tcp 1040 ------- 2 1.0 5.0 3 19
- 4.453028 3 5 tcp 1040 ------- 2 1.0 5.0 3 19
r 4.453036 2 3 tcp 1040 ------- 2 1.0 5.0 4 20
+ 4.453036 3 5 tcp 1040 ------- 2 1.0 5.0 4 20
- 4.453036 3 5 tcp 1040 ------- 2 1.0 5.0 4 20
r 4.504014 2 0 ack 40 ------- 1 4.0 0.0 2 13
4.50401  0  0  4  0  ack_ 2
4.50401  0  0  4  0  cwnd_ 5.000 
+ 4.504014 0 2 tcp 1040 ------- 1 0.0 4.0 6 21
- 4.504014 0 2 tcp 1040 ------- 1 0.0 4.0 6 21
4.50401  0  0  4  0  maxseq_ 6
+ 4.504014 0 2 tcp 1040 ------- 1 0.0 4.0 7 22
4.50401  0  0  4  0  maxseq_ 7
- 4.504016 0 2 tcp 1040 ------- 1 0.0 4.0 7 22
r 4.504022 2 0 ack 40 ------- 1 4.0 0.0 3 14
4.50402  0  0  4  0  ack_ 3
4.50402  0  0  4  0  cwnd_ 6.000 
+ 4.504022 0 2 tcp 1040 ------- 1 0.0 4.0 8 23
- 4.504022 0 2 tcp 1040 ------- 1 0.0 4.0 8 23
4.50402  0  0  4  0  maxseq_ 8
+ 4.504022 0 2 tcp 1040 ------- 1 0.0 4.0 9 24
4.50402  0  0  4  0  maxseq_ 9
- 4.504024 0 2 tcp 1040 ------- 1 0.0 4.0 9 24
r 4.504031 2 0 ack 40 ------- 1 4.0 0.0 4 15
4.50403  0  0  4  0  ack_ 4
4.50403  0  0  4  0  cwnd_ 7.000 
+ 4.504031 0 2 tcp 1040 ------- 1 0.0 4.0 10 25
- 4.504031 0 2 tcp 1040 ------- 1 0.0 4.0 10 25
4.50403  0  0  4  0  maxseq_ 10
+ 4.504031 0 2 tcp 1040 ------- 1 0.0 4.0 11 26
4.50403  0  0  4  0  maxseq_ 11
- 4.504033 0 2 tcp 1040 ------- 1 0.0 4.0 11 26
r 4.504039 2 0 ack 40 ------- 1 4.0 0.0 5 16
4.50404  0  0  4  0  ack_ 5
4.50404  0  0  4  0  cwnd_ 8.000 
+ 4.504039 0 2 tcp 1040 ------- 1 0.0 4.0 12 27
- 4.504039 0 2 tcp 1040 ------- 1 0.0 4.0 12 27
4.50404  0  0  4  0  maxseq_ 12
+ 4.504039 0 2 tcp 1040 ------- 1 0.0 4.0 13 28
4.50404  0  0  4  0  maxseq_ 13
- 4.504041 0 2 tcp 1040 ------- 1 0.0 4.0 13 28
r 4.951 3 5 tcp 40 ---A--- 2 1.0 5.0 0 12
+ 4.951 5 3 ack 40 ------- 2 5.0 1.0 1 29
- 4.951 5 3 ack 40 ------- 2 5.0 1.0 1 29
r 5.004016 0 2 tcp 1040 ------- 1 0.0 4.0 6 21
+ 5.004016 2 3 tcp 1040 ------- 1 0.0 4.0 6 21
- 5.004016 2 3 tcp 1040 ------- 1 0.0 4.0 6 21
r 5.004018 0 2 tcp 1040 ------- 1 0.0 4.0 7 22
+ 5.004018 2 3 tcp 1040 ------- 1 0.0 4.0 7 22
r 5.004024 0 2 tcp 1040 ------- 1 0.0 4.0 8 23
+ 5.004024 2 3 tcp 1040 ------- 1 0.0 4.0 8 23
- 5.004024 2 3 tcp 1040 ------- 1 0.0 4.0 7 22
r 5.004026 0 2 tcp 1040 ------- 1 0.0 4.0 9 24
+ 5.004026 2 3 tcp 1040 ------- 1 0.0 4.0 9 24
r 5.004033 0 2 tcp 1040 ------- 1 0.0 4.0 10 25
+ 5.004033 2 3 tcp 1040 ------- 1 0.0 4.0 10 25
- 5.004033 2 3 tcp 1040 ------- 1 0.0 4.0 8 23
r 5.004035 0 2 tcp 1040 ------- 1 0.0 4.0 11 26
+ 5.004035 2 3 tcp 1040 ------- 1 0.0 4.0 11 26
r 5.004041 0 2 tcp 1040 ------- 1 0.0 4.0 12 27
+ 5.004041 2 3 tcp 1040 ------- 1 0.0 4.0 12 27
- 5.004041 2 3 tcp 1040 ------- 1 0.0 4.0 9 24
r 5.004043 0 2 tcp 1040 ------- 1 0.0 4.0 13 28
+ 5.004043 2 3 tcp 1040 ------- 1 0.0 4.0 13 28
- 5.004049 2 3 tcp 1040 ------- 1 0.0 4.0 10 25
- 5.004058 2 3 tcp 1040 ------- 1 0.0 4.0 11 26
- 5.004066 2 3 tcp 1040 ------- 1 0.0 4.0 12 27
- 5.004074 2 3 tcp 1040 ------- 1 0.0 4.0 13 28
r 5.055024 2 3 tcp 1040 ------- 1 0.0 4.0 6 21
+ 5.055024 3 4 tcp 1040 ------- 1 0.0 4.0 6 21
- 5.055024 3 4 tcp 1040 ------- 1 0.0 4.0 6 21
r 5.055033 2 3 tcp 1040 ------- 1 0.0 4.0 7 22
+ 5.055033 3 4 tcp 1040 ------- 1 0.0 4.0 7 22
- 5.055033 3 4 tcp 1040 ------- 1 0.0 4.0 7 22
r 5.055041 2 3 tcp 1040 ------- 1 0.0 4.0 8 23
+ 5.055041 3 4 tcp 1040 ------- 1 0.0 4.0 8 23
- 5.055041 3 4 tcp 1040 ------- 1 0.0 4.0 8 23
r 5.055049 2 3 tcp 1040 ------- 1 0.0 4.0 9 24
+ 5.055049 3 4 tcp 1040 ------- 1 0.0 4.0 9 24
- 5.055049 3 4 tcp 1040 ------- 1 0.0 4.0 9 24
r 5.055058 2 3 tcp 1040 ------- 1 0.0 4.0 10 25
+ 5.055058 3 4 tcp 1040 ------- 1 0.0 4.0 10 25
- 5.055058 3 4 tcp 1040 ------- 1 0.0 4.0 10 25
r 5.055066 2 3 tcp 1040 ------- 1 0.0 4.0 11 26
+ 5.055066 3 4 tcp 1040 ------- 1 0.0 4.0 11 26
- 5.055066 3 4 tcp 1040 ------- 1 0.0 4.0 11 26
r 5.055074 2 3 tcp 1040 ------- 1 0.0 4.0 12 27
+ 5.055074 3 4 tcp 1040 ------- 1 0.0 4.0 12 27
- 5.055074 3 4 tcp 1040 ------- 1 0.0 4.0 12 27
r 5.055083 2 3 tcp 1040 ------- 1 0.0 4.0 13 28
+ 5.055083 3 4 tcp 1040 ------- 1 0.0 4.0 13 28
- 5.055083 3 4 tcp 1040 ------- 1 0.0 4.0 13 28
r 5.253013 3 5 tcp 1040 ------- 2 1.0 5.0 1 17
+ 5.253013 5 3 ack 40 ------- 2 5.0 1.0 1 30
- 5.253013 5 3 ack 40 ------- 2 5.0 1.0 1 30
r 5.253022 3 5 tcp 1040 ------- 2 1.0 5.0 2 18
+ 5.253022 5 3 ack 40 ------- 2 5.0 1.0 2 31
- 5.253022 5 3 ack 40 ------- 2 5.0 1.0 2 31
r 5.25303 3 5 tcp 1040 ------- 2 1.0 5.0 3 19
+ 5.25303 5 3 ack 40 ------- 2 5.0 1.0 3 32
- 5.25303 5 3 ack 40 ------- 2 5.0 1.0 3 32
r 5.253038 3 5 tcp 1040 ------- 2 1.0 5.0 4 20
+ 5.253038 5 3 ack 40 ------- 2 5.0 1.0 4 33
- 5.253038 5 3 ack 40 ------- 2 5.0 1.0 4 33
r 5.555026 3 4 tcp 1040 ------- 1 0.0 4.0 6 21
+ 5.555026 4 3 ack 40 ------- 1 4.0 0.0 6 34
- 5.555026 4 3 ack 40 ------- 1 4.0 0.0 6 34
r 5.555035 3 4 tcp 1040 ------- 1 0.0 4.0 7 22
+ 5.555035 4 3 ack 40 ------- 1 4.0 0.0 7 35
- 5.555035 4 3 ack 40 ------- 1 4.0 0.0 7 35
r 5.555043 3 4 tcp 1040 ------- 1 0.0 4.0 8 23
+ 5.555043 4 3 ack 40 ------- 1 4.0 0.0 8 36
- 5.555043 4 3 ack 40 ------- 1 4.0 0.0 8 36
r 5.555051 3 4 tcp 1040 ------- 1 0.0 4.0 9 24
+ 5.555051 4 3 ack 40 ------- 1 4.0 0.0 9 37
- 5.555051 4 3 ack 40 ------- 1 4.0 0.0 9 37
r 5.55506 3 4 tcp 1040 ------- 1 0.0 4.0 10 25
+ 5.55506 4 3 ack 40 ------- 1 4.0 0.0 10 38
- 5.55506 4 3 ack 40 ------- 1 4.0 0.0 10 38
r 5.555068 3 4 tcp 1040 ------- 1 0.0 4.0 11 26
+ 5.555068 4 3 ack 40 ------- 1 4.0 0.0 11 39
- 5.555068 4 3 ack 40 ------- 1 4.0 0.0 11 39
r 5.555076 3 4 tcp 1040 ------- 1 0.0 4.0 12 27
+ 5.555076 4 3 ack 40 ------- 1 4.0 0.0 12 40
- 5.555076 4 3 ack 40 ------- 1 4.0 0.0 12 40
r 5.555085 3 4 tcp 1040 ------- 1 0.0 4.0 13 28
+ 5.555085 4 3 ack 40 ------- 1 4.0 0.0 13 41
- 5.555085 4 3 ack 40 ------- 1 4.0 0.0 13 41
r 5.751001 5 3 ack 40 ------- 2 5.0 1.0 1 29
+ 5.751001 3 2 ack 40 ------- 2 5.0 1.0 1 29
- 5.751001 3 2 ack 40 ------- 2 5.0 1.0 1 29
r 5.802001 3 2 ack 40 ------- 2 5.0 1.0 1 29
+ 5.802001 2 1 ack 40 ------- 2 5.0 1.0 1 29
- 5.802001 2 1 ack 40 ------- 2 5.0 1.0 1 29
r 6.053014 5 3 ack 40 ------- 2 5.0 1.0 1 30
+ 6.053014 3 2 ack 40 ------- 2 5.0 1.0 1 30
- 6.053014 3 2 ack 40 ------- 2 5.0 1.0 1 30
r 6.053022 5 3 ack 40 ------- 2 5.0 1.0 2 31
+ 6.053022 3 2 ack 40 ------- 2 5.0 1.0 2 31
- 6.053022 3 2 ack 40 ------- 2 5.0 1.0 2 31
r 6.05303 5 3 ack 40 ------- 2 5.0 1.0 3 32
+ 6.05303 3 2 ack 40 ------- 2 5.0 1.0 3 32
- 6.05303 3 2 ack 40 ------- 2 5.0 1.0 3 32
r 6.053038 5 3 ack 40 ------- 2 5.0 1.0 4 33
+ 6.053038 3 2 ack 40 ------- 2 5.0 1.0 4 33
- 6.053038 3 2 ack 40 ------- 2 5.0 1.0 4 33
r 6.055026 4 3 ack 40 ------- 1 4.0 0.0 6 34
+ 6.055026 3 2 ack 40 ------- 1 4.0 0.0 6 34
- 6.055026 3 2 ack 40 ------- 1 4.0 0.0 6 34
r 6.055035 4 3 ack 40 ------- 1 4.0 0.0 7 35
+ 6.055035 3 2 ack 40 ------- 1 4.0 0.0 7 35
- 6.055035 3 2 ack 40 ------- 1 4.0 0.0 7 35
r 6.055043 4 3 ack 40 ------- 1 4.0 0.0 8 36
+ 6.055043 3 2 ack 40 ------- 1 4.0 0.0 8 36
- 6.055043 3 2 ack 40 ------- 1 4.0 0.0 8 36
r 6.055051 4 3 ack 40 ------- 1 4.0 0.0 9 37
+ 6.055051 3 2 ack 40 ------- 1 4.0 0.0 9 37
- 6.055051 3 2 ack 40 ------- 1 4.0 0.0 9 37
r 6.05506 4 3 ack 40 ------- 1 4.0 0.0 10 38
+ 6.05506 3 2 ack 40 ------- 1 4.0 0.0 10 38
- 6.05506 3 2 ack 40 ------- 1 4.0 0.0 10 38
r 6.055068 4 3 ack 40 ------- 1 4.0 0.0 11 39
+ 6.055068 3 2 ack 40 ------- 1 4.0 0.0 11 39
- 6.055068 3 2 ack 40 ------- 1 4.0 0.0 11 39
r 6.055076 4 3 ack 40 ------- 1 4.0 0.0 12 40
+ 6.055076 3 2 ack 40 ------- 1 4.0 0.0 12 40
- 6.055076 3 2 ack 40 ------- 1 4.0 0.0 12 40
r 6.055085 4 3 ack 40 ------- 1 4.0 0.0 13 41
+ 6.055085 3 2 ack 40 ------- 1 4.0 0.0 13 41
- 6.055085 3 2 ack 40 ------- 1 4.0 0.0 13 41
r 6.104014 3 2 ack 40 ------- 2 5.0 1.0 1 30
+ 6.104014 2 1 ack 40 ------- 2 5.0 1.0 1 30
- 6.104014 2 1 ack 40 ------- 2 5.0 1.0 1 30
r 6.104022 3 2 ack 40 ------- 2 5.0 1.0 2 31
+ 6.104022 2 1 ack 40 ------- 2 5.0 1.0 2 31
- 6.104022 2 1 ack 40 ------- 2 5.0 1.0 2 31
r 6.10403 3 2 ack 40 ------- 2 5.0 1.0 3 32
+ 6.10403 2 1 ack 40 ------- 2 5.0 1.0 3 32
- 6.10403 2 1 ack 40 ------- 2 5.0 1.0 3 32
r 6.104039 3 2 ack 40 ------- 2 5.0 1.0 4 33
+ 6.104039 2 1 ack 40 ------- 2 5.0 1.0 4 33
- 6.104039 2 1 ack 40 ------- 2 5.0 1.0 4 33
r 6.106027 3 2 ack 40 ------- 1 4.0 0.0 6 34
+ 6.106027 2 0 ack 40 ------- 1 4.0 0.0 6 34
- 6.106027 2 0 ack 40 ------- 1 4.0 0.0 6 34
r 6.106035 3 2 ack 40 ------- 1 4.0 0.0 7 35
+ 6.106035 2 0 ack 40 ------- 1 4.0 0.0 7 35
- 6.106035 2 0 ack 40 ------- 1 4.0 0.0 7 35
r 6.106043 3 2 ack 40 ------- 1 4.0 0.0 8 36
+ 6.106043 2 0 ack 40 ------- 1 4.0 0.0 8 36
- 6.106043 2 0 ack 40 ------- 1 4.0 0.0 8 36
r 6.106052 3 2 ack 40 ------- 1 4.0 0.0 9 37
+ 6.106052 2 0 ack 40 ------- 1 4.0 0.0 9 37
- 6.106052 2 0 ack 40 ------- 1 4.0 0.0 9 37
r 6.10606 3 2 ack 40 ------- 1 4.0 0.0 10 38
+ 6.10606 2 0 ack 40 ------- 1 4.0 0.0 10 38
- 6.10606 2 0 ack 40 ------- 1 4.0 0.0 10 38
r 6.106068 3 2 ack 40 ------- 1 4.0 0.0 11 39
+ 6.106068 2 0 ack 40 ------- 1 4.0 0.0 11 39
- 6.106068 2 0 ack 40 ------- 1 4.0 0.0 11 39
r 6.106077 3 2 ack 40 ------- 1 4.0 0.0 12 40
+ 6.106077 2 0 ack 40 ------- 1 4.0 0.0 12 40
- 6.106077 2 0 ack 40 ------- 1 4.0 0.0 12 40
r 6.106085 3 2 ack 40 ------- 1 4.0 0.0 13 41
+ 6.106085 2 0 ack 40 ------- 1 4.0 0.0 13 41
- 6.106085 2 0 ack 40 ------- 1 4.0 0.0 13 41
r 6.602001 2 1 ack 40 ------- 2 5.0 1.0 1 29
r 6.606027 2 0 ack 40 ------- 1 4.0 0.0 6 34
6.60603  0  0  4  0  ack_ 6
6.60603  0  0  4  0  cwnd_ 9.000 
+ 6.606027 0 2 tcp 1040 ------- 1 0.0 4.0 14 42
- 6.606027 0 2 tcp 1040 ------- 1 0.0 4.0 14 42
6.60603  0  0  4  0  maxseq_ 14
+ 6.606027 0 2 tcp 1040 ------- 1 0.0 4.0 15 43
6.60603  0  0  4  0  maxseq_ 15
- 6.606029 0 2 tcp 1040 ------- 1 0.0 4.0 15 43
r 6.606035 2 0 ack 40 ------- 1 4.0 0.0 7 35
6.60604  0  0  4  0  ack_ 7
6.60604  0  0  4  0  cwnd_ 10.000
+ 6.606035 0 2 tcp 1040 ------- 1 0.0 4.0 16 44
- 6.606035 0 2 tcp 1040 ------- 1 0.0 4.0 16 44
6.60604  0  0  4  0  maxseq_ 16
+ 6.606035 0 2 tcp 1040 ------- 1 0.0 4.0 17 45
6.60604  0  0  4  0  maxseq_ 17
- 6.606037 0 2 tcp 1040 ------- 1 0.0 4.0 17 45
r 6.606044 2 0 ack 40 ------- 1 4.0 0.0 8 36
6.60604  0  0  4  0  ack_ 8
6.60604  0  0  4  0  cwnd_ 11.000
+ 6.606044 0 2 tcp 1040 ------- 1 0.0 4.0 18 46
- 6.606044 0 2 tcp 1040 ------- 1 0.0 4.0 18 46
6.60604  0  0  4  0  maxseq_ 18
+ 6.606044 0 2 tcp 1040 ------- 1 0.0 4.0 19 47
6.60604  0  0  4  0  maxseq_ 19
- 6.606046 0 2 tcp 1040 ------- 1 0.0 4.0 19 47
r 6.606052 2 0 ack 40 ------- 1 4.0 0.0 9 37
6.60605  0  0  4  0  ack_ 9
6.60605  0  0  4  0  cwnd_ 12.000
+ 6.606052 0 2 tcp 1040 ------- 1 0.0 4.0 20 48
- 6.606052 0 2 tcp 1040 ------- 1 0.0 4.0 20 48
6.60605  0  0  4  0  maxseq_ 20
+ 6.606052 0 2 tcp 1040 ------- 1 0.0 4.0 21 49
6.60605  0  0  4  0  maxseq_ 21
- 6.606054 0 2 tcp 1040 ------- 1 0.0 4.0 21 49
r 6.60606 2 0 ack 40 ------- 1 4.0 0.0 10 38
6.60606  0  0  4  0  ack_ 10
6.60606  0  0  4  0  cwnd_ 13.000
+ 6.60606 0 2 tcp 1040 ------- 1 0.0 4.0 22 50
- 6.60606 0 2 tcp 1040 ------- 1 0.0 4.0 22 50
6.60606  0  0  4  0  maxseq_ 22
+ 6.60606 0 2 tcp 1040 ------- 1 0.0 4.0 23 51
6.60606  0  0  4  0  maxseq_ 23
- 6.606062 0 2 tcp 1040 ------- 1 0.0 4.0 23 51
r 6.606068 2 0 ack 40 ------- 1 4.0 0.0 11 39
6.60607  0  0  4  0  ack_ 11
6.60607  0  0  4  0  cwnd_ 14.000
+ 6.606068 0 2 tcp 1040 ------- 1 0.0 4.0 24 52
- 6.606068 0 2 tcp 1040 ------- 1 0.0 4.0 24 52
6.60607  0  0  4  0  maxseq_ 24
+ 6.606068 0 2 tcp 1040 ------- 1 0.0 4.0 25 53
6.60607  0  0  4  0  maxseq_ 25
- 6.606071 0 2 tcp 1040 ------- 1 0.0 4.0 25 53
r 6.606077 2 0 ack 40 ------- 1 4.0 0.0 12 40
6.60608  0  0  4  0  ack_ 12
6.60608  0  0  4  0  cwnd_ 15.000
+ 6.606077 0 2 tcp 1040 ------- 1 0.0 4.0 26 54
- 6.606077 0 2 tcp 1040 ------- 1 0.0 4.0 26 54
6.60608  0  0  4  0  maxseq_ 26
+ 6.606077 0 2 tcp 1040 ------- 1 0.0 4.0 27 55
6.60608  0  0  4  0  maxseq_ 27
- 6.606079 0 2 tcp 1040 ------- 1 0.0 4.0 27 55
r 6.606085 2 0 ack 40 ------- 1 4.0 0.0 13 41
6.60609  0  0  4  0  ack_ 13
6.60609  0  0  4  0  cwnd_ 16.000
+ 6.606085 0 2 tcp 1040 ------- 1 0.0 4.0 28 56
- 6.606085 0 2 tcp 1040 ------- 1 0.0 4.0 28 56
6.60609  0  0  4  0  maxseq_ 28
+ 6.606085 0 2 tcp 1040 ------- 1 0.0 4.0 29 57
6.60609  0  0  4  0  maxseq_ 29
- 6.606087 0 2 tcp 1040 ------- 1 0.0 4.0 29 57
r 6.904014 2 1 ack 40 ------- 2 5.0 1.0 1 30
r 6.904022 2 1 ack 40 ------- 2 5.0 1.0 2 31
6.90402  1  0  5  0  ack_ 2
6.90402  1  0  5  0  rtt_ 3.302 
+ 6.904022 1 2 tcp 1040 ------- 2 1.0 5.0 5 58
- 6.904022 1 2 tcp 1040 ------- 2 1.0 5.0 5 58
6.90402  1  0  5  0  maxseq_ 5
r 6.904031 2 1 ack 40 ------- 2 5.0 1.0 3 32
6.90403  1  0  5  0  ack_ 3
+ 6.904031 1 2 tcp 1040 ------- 2 1.0 5.0 6 59
- 6.904031 1 2 tcp 1040 ------- 2 1.0 5.0 6 59
6.90403  1  0  5  0  maxseq_ 6
r 6.904039 2 1 ack 40 ------- 2 5.0 1.0 4 33
6.90404  1  0  5  0  ack_ 4
+ 6.904039 1 2 tcp 1040 ------- 2 1.0 5.0 7 60
- 6.904039 1 2 tcp 1040 ------- 2 1.0 5.0 7 60
6.90404  1  0  5  0  maxseq_ 7
r 7.106029 0 2 tcp 1040 ------- 1 0.0 4.0 14 42
+ 7.106029 2 3 tcp 1040 ------- 1 0.0 4.0 14 42
- 7.106029 2 3 tcp 1040 ------- 1 0.0 4.0 14 42
r 7.106031 0 2 tcp 1040 ------- 1 0.0 4.0 15 43
+ 7.106031 2 3 tcp 1040 ------- 1 0.0 4.0 15 43
r 7.106037 0 2 tcp 1040 ------- 1 0.0 4.0 16 44
+ 7.106037 2 3 tcp 1040 ------- 1 0.0 4.0 16 44
- 7.106037 2 3 tcp 1040 ------- 1 0.0 4.0 15 43
r 7.106039 0 2 tcp 1040 ------- 1 0.0 4.0 17 45
+ 7.106039 2 3 tcp 1040 ------- 1 0.0 4.0 17 45
r 7.106046 0 2 tcp 1040 ------- 1 0.0 4.0 18 46
+ 7.106046 2 3 tcp 1040 ------- 1 0.0 4.0 18 46
- 7.106046 2 3 tcp 1040 ------- 1 0.0 4.0 16 44
r 7.106048 0 2 tcp 1040 ------- 1 0.0 4.0 19 47
+ 7.106048 2 3 tcp 1040 ------- 1 0.0 4.0 19 47
r 7.106054 0 2 tcp 1040 ------- 1 0.0 4.0 20 48
+ 7.106054 2 3 tcp 1040 ------- 1 0.0 4.0 20 48
- 7.106054 2 3 tcp 1040 ------- 1 0.0 4.0 17 45
r 7.106056 0 2 tcp 1040 ------- 1 0.0 4.0 21 49
+ 7.106056 2 3 tcp 1040 ------- 1 0.0 4.0 21 49
r 7.106062 0 2 tcp 1040 ------- 1 0.0 4.0 22 50
+ 7.106062 2 3 tcp 1040 ------- 1 0.0 4.0 22 50
- 7.106062 2 3 tcp 1040 ------- 1 0.0 4.0 18 46
r 7.106064 0 2 tcp 1040 ------- 1 0.0 4.0 23 51
+ 7.106064 2 3 tcp 1040 ------- 1 0.0 4.0 23 51
r 7.106071 0 2 tcp 1040 ------- 1 0.0 4.0 24 52
+ 7.106071 2 3 tcp 1040 ------- 1 0.0 4.0 24 52
- 7.106071 2 3 tcp 1040 ------- 1 0.0 4.0 19 47
r 7.106073 0 2 tcp 1040 ------- 1 0.0 4.0 25 53
+ 7.106073 2 3 tcp 1040 ------- 1 0.0 4.0 25 53
r 7.106079 0 2 tcp 1040 ------- 1 0.0 4.0 26 54
+ 7.106079 2 3 tcp 1040 ------- 1 0.0 4.0 26 54
- 7.106079 2 3 tcp 1040 ------- 1 0.0 4.0 20 48
r 7.106081 0 2 tcp 1040 ------- 1 0.0 4.0 27 55
+ 7.106081 2 3 tcp 1040 ------- 1 0.0 4.0 27 55
r 7.106087 0 2 tcp 1040 ------- 1 0.0 4.0 28 56
+ 7.106087 2 3 tcp 1040 ------- 1 0.0 4.0 28 56
- 7.106087 2 3 tcp 1040 ------- 1 0.0 4.0 21 49
r 7.106089 0 2 tcp 1040 ------- 1 0.0 4.0 29 57
+ 7.106089 2 3 tcp 1040 ------- 1 0.0 4.0 29 57
- 7.106096 2 3 tcp 1040 ------- 1 0.0 4.0 22 50
- 7.106104 2 3 tcp 1040 ------- 1 0.0 4.0 23 51
- 7.106112 2 3 tcp 1040 ------- 1 0.0 4.0 24 52
- 7.10612 2 3 tcp 1040 ------- 1 0.0 4.0 25 53
- 7.106129 2 3 tcp 1040 ------- 1 0.0 4.0 26 54
- 7.106137 2 3 tcp 1040 ------- 1 0.0 4.0 27 55
- 7.106145 2 3 tcp 1040 ------- 1 0.0 4.0 28 56
- 7.106154 2 3 tcp 1040 ------- 1 0.0 4.0 29 57
r 7.157037 2 3 tcp 1040 ------- 1 0.0 4.0 14 42
+ 7.157037 3 4 tcp 1040 ------- 1 0.0 4.0 14 42
- 7.157037 3 4 tcp 1040 ------- 1 0.0 4.0 14 42
r 7.157046 2 3 tcp 1040 ------- 1 0.0 4.0 15 43
+ 7.157046 3 4 tcp 1040 ------- 1 0.0 4.0 15 43
- 7.157046 3 4 tcp 1040 ------- 1 0.0 4.0 15 43
r 7.157054 2 3 tcp 1040 ------- 1 0.0 4.0 16 44
+ 7.157054 3 4 tcp 1040 ------- 1 0.0 4.0 16 44
- 7.157054 3 4 tcp 1040 ------- 1 0.0 4.0 16 44
r 7.157062 2 3 tcp 1040 ------- 1 0.0 4.0 17 45
+ 7.157062 3 4 tcp 1040 ------- 1 0.0 4.0 17 45
- 7.157062 3 4 tcp 1040 ------- 1 0.0 4.0 17 45
r 7.157071 2 3 tcp 1040 ------- 1 0.0 4.0 18 46
+ 7.157071 3 4 tcp 1040 ------- 1 0.0 4.0 18 46
- 7.157071 3 4 tcp 1040 ------- 1 0.0 4.0 18 46
r 7.157079 2 3 tcp 1040 ------- 1 0.0 4.0 19 47
+ 7.157079 3 4 tcp 1040 ------- 1 0.0 4.0 19 47
- 7.157079 3 4 tcp 1040 ------- 1 0.0 4.0 19 47
r 7.157087 2 3 tcp 1040 ------- 1 0.0 4.0 20 48
+ 7.157087 3 4 tcp 1040 ------- 1 0.0 4.0 20 48
- 7.157087 3 4 tcp 1040 ------- 1 0.0 4.0 20 48
r 7.157096 2 3 tcp 1040 ------- 1 0.0 4.0 21 49
+ 7.157096 3 4 tcp 1040 ------- 1 0.0 4.0 21 49
- 7.157096 3 4 tcp 1040 ------- 1 0.0 4.0 21 49
r 7.157104 2 3 tcp 1040 ------- 1 0.0 4.0 22 50
+ 7.157104 3 4 tcp 1040 ------- 1 0.0 4.0 22 50
- 7.157104 3 4 tcp 1040 ------- 1 0.0 4.0 22 50
r 7.157112 2 3 tcp 1040 ------- 1 0.0 4.0 23 51
+ 7.157112 3 4 tcp 1040 ------- 1 0.0 4.0 23 51
- 7.157112 3 4 tcp 1040 ------- 1 0.0 4.0 23 51
r 7.15712 2 3 tcp 1040 ------- 1 0.0 4.0 24 52
+ 7.15712 3 4 tcp 1040 ------- 1 0.0 4.0 24 52
- 7.15712 3 4 tcp 1040 ------- 1 0.0 4.0 24 52
r 7.157129 2 3 tcp 1040 ------- 1 0.0 4.0 25 53
+ 7.157129 3 4 tcp 1040 ------- 1 0.0 4.0 25 53
- 7.157129 3 4 tcp 1040 ------- 1 0.0 4.0 25 53
r 7.157137 2 3 tcp 1040 ------- 1 0.0 4.0 26 54
+ 7.157137 3 4 tcp 1040 ------- 1 0.0 4.0 26 54
- 7.157137 3 4 tcp 1040 ------- 1 0.0 4.0 26 54
r 7.157145 2 3 tcp 1040 ------- 1 0.0 4.0 27 55
+ 7.157145 3 4 tcp 1040 ------- 1 0.0 4.0 27 55
- 7.157145 3 4 tcp 1040 ------- 1 0.0 4.0 27 55
r 7.157154 2 3 tcp 1040 ------- 1 0.0 4.0 28 56
+ 7.157154 3 4 tcp 1040 ------- 1 0.0 4.0 28 56
- 7.157154 3 4 tcp 1040 ------- 1 0.0 4.0 28 56
r 7.157162 2 3 tcp 1040 ------- 1 0.0 4.0 29 57
+ 7.157162 3 4 tcp 1040 ------- 1 0.0 4.0 29 57
- 7.157162 3 4 tcp 1040 ------- 1 0.0 4.0 29 57
r 7.657039 3 4 tcp 1040 ------- 1 0.0 4.0 14 42
+ 7.657039 4 3 ack 40 ------- 1 4.0 0.0 14 61
- 7.657039 4 3 ack 40 ------- 1 4.0 0.0 14 61
r 7.657048 3 4 tcp 1040 ------- 1 0.0 4.0 15 43
+ 7.657048 4 3 ack 40 ------- 1 4.0 0.0 15 62
- 7.657048 4 3 ack 40 ------- 1 4.0 0.0 15 62
r 7.657056 3 4 tcp 1040 ------- 1 0.0 4.0 16 44
+ 7.657056 4 3 ack 40 ------- 1 4.0 0.0 16 63
- 7.657056 4 3 ack 40 ------- 1 4.0 0.0 16 63
r 7.657064 3 4 tcp 1040 ------- 1 0.0 4.0 17 45
+ 7.657064 4 3 ack 40 ------- 1 4.0 0.0 17 64
- 7.657064 4 3 ack 40 ------- 1 4.0 0.0 17 64
r 7.657073 3 4 tcp 1040 ------- 1 0.0 4.0 18 46
+ 7.657073 4 3 ack 40 ------- 1 4.0 0.0 18 65
- 7.657073 4 3 ack 40 ------- 1 4.0 0.0 18 65
r 7.657081 3 4 tcp 1040 ------- 1 0.0 4.0 19 47
+ 7.657081 4 3 ack 40 ------- 1 4.0 0.0 19 66
- 7.657081 4 3 ack 40 ------- 1 4.0 0.0 19 66
r 7.657089 3 4 tcp 1040 ------- 1 0.0 4.0 20 48
+ 7.657089 4 3 ack 40 ------- 1 4.0 0.0 20 67
- 7.657089 4 3 ack 40 ------- 1 4.0 0.0 20 67
r 7.657098 3 4 tcp 1040 ------- 1 0.0 4.0 21 49
+ 7.657098 4 3 ack 40 ------- 1 4.0 0.0 21 68
- 7.657098 4 3 ack 40 ------- 1 4.0 0.0 21 68
r 7.657106 3 4 tcp 1040 ------- 1 0.0 4.0 22 50
+ 7.657106 4 3 ack 40 ------- 1 4.0 0.0 22 69
- 7.657106 4 3 ack 40 ------- 1 4.0 0.0 22 69
r 7.657114 3 4 tcp 1040 ------- 1 0.0 4.0 23 51
+ 7.657114 4 3 ack 40 ------- 1 4.0 0.0 23 70
- 7.657114 4 3 ack 40 ------- 1 4.0 0.0 23 70
r 7.657123 3 4 tcp 1040 ------- 1 0.0 4.0 24 52
+ 7.657123 4 3 ack 40 ------- 1 4.0 0.0 24 71
- 7.657123 4 3 ack 40 ------- 1 4.0 0.0 24 71
r 7.657131 3 4 tcp 1040 ------- 1 0.0 4.0 25 53
+ 7.657131 4 3 ack 40 ------- 1 4.0 0.0 25 72
- 7.657131 4 3 ack 40 ------- 1 4.0 0.0 25 72
r 7.657139 3 4 tcp 1040 ------- 1 0.0 4.0 26 54
+ 7.657139 4 3 ack 40 ------- 1 4.0 0.0 26 73
- 7.657139 4 3 ack 40 ------- 1 4.0 0.0 26 73
r 7.657148 3 4 tcp 1040 ------- 1 0.0 4.0 27 55
+ 7.657148 4 3 ack 40 ------- 1 4.0 0.0 27 74
- 7.657148 4 3 ack 40 ------- 1 4.0 0.0 27 74
r 7.657156 3 4 tcp 1040 ------- 1 0.0 4.0 28 56
+ 7.657156 4 3 ack 40 ------- 1 4.0 0.0 28 75
- 7.657156 4 3 ack 40 ------- 1 4.0 0.0 28 75
r 7.657164 3 4 tcp 1040 ------- 1 0.0 4.0 29 57
+ 7.657164 4 3 ack 40 ------- 1 4.0 0.0 29 76
- 7.657164 4 3 ack 40 ------- 1 4.0 0.0 29 76
r 7.704024 1 2 tcp 1040 ------- 2 1.0 5.0 5 58
+ 7.704024 2 3 tcp 1040 ------- 2 1.0 5.0 5 58
- 7.704024 2 3 tcp 1040 ------- 2 1.0 5.0 5 58
r 7.704033 1 2 tcp 1040 ------- 2 1.0 5.0 6 59
+ 7.704033 2 3 tcp 1040 ------- 2 1.0 5.0 6 59
- 7.704033 2 3 tcp 1040 ------- 2 1.0 5.0 6 59
r 7.704041 1 2 tcp 1040 ------- 2 1.0 5.0 7 60
+ 7.704041 2 3 tcp 1040 ------- 2 1.0 5.0 7 60
- 7.704041 2 3 tcp 1040 ------- 2 1.0 5.0 7 60
r 7.755033 2 3 tcp 1040 ------- 2 1.0 5.0 5 58
+ 7.755033 3 5 tcp 1040 ------- 2 1.0 5.0 5 58
- 7.755033 3 5 tcp 1040 ------- 2 1.0 5.0 5 58
r 7.755041 2 3 tcp 1040 ------- 2 1.0 5.0 6 59
+ 7.755041 3 5 tcp 1040 ------- 2 1.0 5.0 6 59
- 7.755041 3 5 tcp 1040 ------- 2 1.0 5.0 6 59
r 7.755049 2 3 tcp 1040 ------- 2 1.0 5.0 7 60
+ 7.755049 3 5 tcp 1040 ------- 2 1.0 5.0 7 60
- 7.755049 3 5 tcp 1040 ------- 2 1.0 5.0 7 60
r 8.157039 4 3 ack 40 ------- 1 4.0 0.0 14 61
+ 8.157039 3 2 ack 40 ------- 1 4.0 0.0 14 61
- 8.157039 3 2 ack 40 ------- 1 4.0 0.0 14 61
r 8.157048 4 3 ack 40 ------- 1 4.0 0.0 15 62
+ 8.157048 3 2 ack 40 ------- 1 4.0 0.0 15 62
- 8.157048 3 2 ack 40 ------- 1 4.0 0.0 15 62
r 8.157056 4 3 ack 40 ------- 1 4.0 0.0 16 63
+ 8.157056 3 2 ack 40 ------- 1 4.0 0.0 16 63
- 8.157056 3 2 ack 40 ------- 1 4.0 0.0 16 63
r 8.157064 4 3 ack 40 ------- 1 4.0 0.0 17 64
+ 8.157064 3 2 ack 40 ------- 1 4.0 0.0 17 64
- 8.157064 3 2 ack 40 ------- 1 4.0 0.0 17 64