V -t * -v 1.0a5 -a 0
A -t * -n 1 -p 0 -o 0x7fffffff -c 30 -a 1
A -t * -h 1 -m 1073741823 -s 0
c -t * -i 1 -n Blue
c -t * -i 2 -n Red
n -t * -a 4 -s 4 -S UP -v circle -c black -i black
n -t * -a 0 -s 0 -S UP -v circle -c black -i black
n -t * -a 5 -s 5 -S UP -v circle -c black -i black
n -t * -a 1 -s 1 -S UP -v circle -c black -i black
n -t * -a 2 -s 2 -S UP -v circle -c black -i black
n -t * -a 3 -s 3 -S UP -v circle -c black -i black
l -t * -s 0 -d 2 -S UP -r 4000000000 -D 0.5 -c black -o right-down
l -t * -s 1 -d 2 -S UP -r 4000000000 -D 0.80000000000000004 -c black -o right-up
l -t * -s 2 -d 3 -S UP -r 500000000 -D 0.050000000000000003 -c black -o right
l -t * -s 3 -d 4 -S UP -r 4000000000 -D 0.5 -c black -o right-up
l -t * -s 3 -d 5 -S UP -r 4000000000 -D 0.80000000000000004 -c black -o right-down
+ -t 0 -s 1 -d 2 -p tcp -e 40 -c 2 -i 0 -a 2 -x {1.0 5.0 0 ------- null}
- -t 0 -s 1 -d 2 -p tcp -e 40 -c 2 -i 0 -a 2 -x {1.0 5.0 0 ------- null}
h -t 0 -s 1 -d 2 -p tcp -e 40 -c 2 -i 0 -a 2 -x {1.0 5.0 -1 ------- null}
+ -t 0 -s 0 -d 2 -p tcp -e 40 -c 1 -i 1 -a 1 -x {0.0 4.0 0 ------- null}
- -t 0 -s 0 -d 2 -p tcp -e 40 -c 1 -i 1 -a 1 -x {0.0 4.0 0 ------- null}
h -t 0 -s 0 -d 2 -p tcp -e 40 -c 1 -i 1 -a 1 -x {0.0 4.0 -1 ------- null}
r -t 0.50000008 -s 0 -d 2 -p tcp -e 40 -c 1 -i 1 -a 1 -x {0.0 4.0 0 ------- null}
+ -t 0.50000008 -s 2 -d 3 -p tcp -e 40 -c 1 -i 1 -a 1 -x {0.0 4.0 0 ------- null}
- -t 0.50000008 -s 2 -d 3 -p tcp -e 40 -c 1 -i 1 -a 1 -x {0.0 4.0 0 ------- null}
h -t 0.50000008 -s 2 -d 3 -p tcp -e 40 -c 1 -i 1 -a 1 -x {0.0 4.0 -1 ------- null}
r -t 0.55000072 -s 2 -d 3 -p tcp -e 40 -c 1 -i 1 -a 1 -x {0.0 4.0 0 ------- null}
+ -t 0.55000072 -s 3 -d 4 -p tcp -e 40 -c 1 -i 1 -a 1 -x {0.0 4.0 0 ------- null}
- -t 0.55000072 -s 3 -d 4 -p tcp -e 40 -c 1 -i 1 -a 1 -x {0.0 4.0 0 ------- null}
h -t 0.55000072 -s 3 -d 4 -p tcp -e 40 -c 1 -i 1 -a 1 -x {0.0 4.0 -1 ------- null}
r -t 0.80000008 -s 1 -d 2 -p tcp -e 40 -c 2 -i 0 -a 2 -x {1.0 5.0 0 ------- null}
+ -t 0.80000008 -s 2 -d 3 -p tcp -e 40 -c 2 -i 0 -a 2 -x {1.0 5.0 0 ------- null}
- -t 0.80000008 -s 2 -d 3 -p tcp -e 40 -c 2 -i 0 -a 2 -x {1.0 5.0 0 ------- null}
h -t 0.80000008 -s 2 -d 3 -p tcp -e 40 -c 2 -i 0 -a 2 -x {1.0 5.0 -1 ------- null}
r -t 0.85000072 -s 2 -d 3 -p tcp -e 40 -c 2 -i 0 -a 2 -x {1.0 5.0 0 ------- null}
+ -t 0.85000072 -s 3 -d 5 -p tcp -e 40 -c 2 -i 0 -a 2 -x {1.0 5.0 0 ------- null}
- -t 0.85000072 -s 3 -d 5 -p tcp -e 40 -c 2 -i 0 -a 2 -x {1.0 5.0 0 ------- null}
h -t 0.85000072 -s 3 -d 5 -p tcp -e 40 -c 2 -i 0 -a 2 -x {1.0 5.0 -1 ------- null}
r -t 1.0500008 -s 3 -d 4 -p tcp -e 40 -c 1 -i 1 -a 1 -x {0.0 4.0 0 ------- null}
+ -t 1.0500008 -s 4 -d 3 -p ack -e 40 -c 1 -i 2 -a 1 -x {4.0 0.0 0 ------- null}
- -t 1.0500008 -s 4 -d 3 -p ack -e 40 -c 1 -i 2 -a 1 -x {4.0 0.0 0 ------- null}
h -t 1.0500008 -s 4 -d 3 -p ack -e 40 -c 1 -i 2 -a 1 -x {4.0 0.0 -1 ------- null}
r -t 1.55000088 -s 4 -d 3 -p ack -e 40 -c 1 -i 2 -a 1 -x {4.0 0.0 0 ------- null}
+ -t 1.55000088 -s 3 -d 2 -p ack -e 40 -c 1 -i 2 -a 1 -x {4.0 0.0 0 ------- null}
- -t 1.55000088 -s 3 -d 2 -p ack -e 40 -c 1 -i 2 -a 1 -x {4.0 0.0 0 ------- null}
h -t 1.55000088 -s 3 -d 2 -p ack -e 40 -c 1 -i 2 -a 1 -x {4.0 0.0 -1 ------- null}
r -t 1.60000152 -s 3 -d 2 -p ack -e 40 -c 1 -i 2 -a 1 -x {4.0 0.0 0 ------- null}
+ -t 1.60000152 -s 2 -d 0 -p ack -e 40 -c 1 -i 2 -a 1 -x {4.0 0.0 0 ------- null}
- -t 1.60000152 -s 2 -d 0 -p ack -e 40 -c 1 -i 2 -a 1 -x {4.0 0.0 0 ------- null}
h -t 1.60000152 -s 2 -d 0 -p ack -e 40 -c 1 -i 2 -a 1 -x {4.0 0.0 -1 ------- null}
r -t 1.6500008 -s 3 -d 5 -p tcp -e 40 -c 2 -i 0 -a 2 -x {1.0 5.0 0 ------- null}
+ -t 1.6500008 -s 5 -d 3 -p ack -e 40 -c 2 -i 3 -a 2 -x {5.0 1.0 0 ------- null}
- -t 1.6500008 -s 5 -d 3 -p ack -e 40 -c 2 -i 3 -a 2 -x {5.0 1.0 0 ------- null}
h -t 1.6500008 -s 5 -d 3 -p ack -e 40 -c 2 -i 3 -a 2 -x {5.0 1.0 -1 ------- null}
r -t 2.1000016 -s 2 -d 0 -p ack -e 40 -c 1 -i 2 -a 1 -x {4.0 0.0 0 ------- null}
+ -t 2.1000016 -s 0 -d 2 -p tcp -e 1040 -c 1 -i 4 -a 1 -x {0.0 4.0 1 ------- null}
- -t 2.1000016 -s 0 -d 2 -p tcp -e 1040 -c 1 -i 4 -a 1 -x {0.0 4.0 1 ------- null}
h -t 2.1000016 -s 0 -d 2 -p tcp -e 1040 -c 1 -i 4 -a 1 -x {0.0 4.0 -1 ------- null}
+ -t 2.1000016 -s 0 -d 2 -p tcp -e 1040 -c 1 -i 5 -a 1 -x {0.0 4.0 2 ------- null}
- -t 2.10000368 -s 0 -d 2 -p tcp -e 1040 -c 1 -i 5 -a 1 -x {0.0 4.0 2 ------- null}
h -t 2.10000368 -s 0 -d 2 -p tcp -e 1040 -c 1 -i 5 -a 1 -x {0.0 4.0 -1 ------- null}
r -t 2.45000088 -s 5 -d 3 -p ack -e 40 -c 2 -i 3 -a 2 -x {5.0 1.0 0 ------- null}
+ -t 2.45000088 -s 3 -d 2 -p ack -e 40 -c 2 -i 3 -a 2 -x {5.0 1.0 0 ------- null}
- -t 2.45000088 -s 3 -d 2 -p ack -e 40 -c 2 -i 3 -a 2 -x {5.0 1.0 0 ------- null}
h -t 2.45000088 -s 3 -d 2 -p ack -e 40 -c 2 -i 3 -a 2 -x {5.0 1.0 -1 ------- null}
r -t 2.50000152 -s 3 -d 2 -p ack -e 40 -c 2 -i 3 -a 2 -x {5.0 1.0 0 ------- null}
+ -t 2.50000152 -s 2 -d 1 -p ack -e 40 -c 2 -i 3 -a 2 -x {5.0 1.0 0 ------- null}
- -t 2.50000152 -s 2 -d 1 -p ack -e 40 -c 2 -i 3 -a 2 -x {5.0 1.0 0 ------- null}
h -t 2.50000152 -s 2 -d 1 -p ack -e 40 -c 2 -i 3 -a 2 -x {5.0 1.0 -1 ------- null}
r -t 2.60000368 -s 0 -d 2 -p tcp -e 1040 -c 1 -i 4 -a 1 -x {0.0 4.0 1 ------- null}
+ -t 2.60000368 -s 2 -d 3 -p tcp -e 1040 -c 1 -i 4 -a 1 -x {0.0 4.0 1 ------- null}
- -t 2.60000368 -s 2 -d 3 -p tcp -e 1040 -c 1 -i 4 -a 1 -x {0.0 4.0 1 ------- null}
h -t 2.60000368 -s 2 -d 3 -p tcp -e 1040 -c 1 -i 4 -a 1 -x {0.0 4.0 -1 ------- null}
r -t 2.60000576 -s 0 -d 2 -p tcp -e 1040 -c 1 -i 5 -a 1 -x {0.0 4.0 2 ------- null}
+ -t 2.60000576 -s 2 -d 3 -p tcp -e 1040 -c 1 -i 5 -a 1 -x {0.0 4.0 2 ------- null}
- -t 2.60002032 -s 2 -d 3 -p tcp -e 1040 -c 1 -i 5 -a 1 -x {0.0 4.0 2 ------- null}
h -t 2.60002032 -s 2 -d 3 -p tcp -e 1040 -c 1 -i 5 -a 1 -x {0.0 4.0 -1 ------- null}
r -t 2.65002032 -s 2 -d 3 -p tcp -e 1040 -c 1 -i 4 -a 1 -x {0.0 4.0 1 ------- null}
+ -t 2.65002032 -s 3 -d 4 -p tcp -e 1040 -c 1 -i 4 -a 1 -x {0.0 4.0 1 ------- null}
- -t 2.65002032 -s 3 -d 4 -p tcp -e 1040 -c 1 -i 4 -a 1 -x {0.0 4.0 1 ------- null}
h -t 2.65002032 -s 3 -d 4 -p tcp -e 1040 -c 1 -i 4 -a 1 -x {0.0 4.0 -1 ------- null}
r -t 2.65003696 -s 2 -d 3 -p tcp -e 1040 -c 1 -i 5 -a 1 -x {0.0 4.0 2 ------- null}
+ -t 2.65003696 -s 3 -d 4 -p tcp -e 1040 -c 1 -i 5 -a 1 -x {0.0 4.0 2 ------- null}
- -t 2.65003696 -s 3 -d 4 -p tcp -e 1040 -c 1 -i 5 -a 1 -x {0.0 4.0 2 ------- null}
h -t 2.65003696 -s 3 -d 4 -p tcp -e 1040 -c 1 -i 5 -a 1 -x {0.0 4.0 -1 ------- null}
+ -t 3 -s 1 -d 2 -p tcp -e 40 -c 2 -i 6 -a 2 -x {1.0 5.0 0 ---A--- null}
- -t 3 -s 1 -d 2 -p tcp -e 40 -c 2 -i 6 -a 2 -x {1.0 5.0 0 ---A--- null}
h -t 3 -s 1 -d 2 -p tcp -e 40 -c 2 -i 6 -a 2 -x {1.0 5.0 -1 ---A--- null}
r -t 3.1500224 -s 3 -d 4 -p tcp -e 1040 -c 1 -i 4 -a 1 -x {0.0 4.0 1 ------- null}
+ -t 3.1500224 -s 4 -d 3 -p ack -e 40 -c 1 -i 7 -a 1 -x {4.0 0.0 1 ------- null}
- -t 3.1500224 -s 4 -d 3 -p ack -e 40 -c 1 -i 7 -a 1 -x {4.0 0.0 1 ------- null}
h -t 3.1500224 -s 4 -d 3 -p ack -e 40 -c 1 -i 7 -a 1 -x {4.0 0.0 -1 ------- null}
r -t 3.15003904 -s 3 -d 4 -p tcp -e 1040 -c 1 -i 5 -a 1 -x {0.0 4.0 2 ------- null}
+ -t 3.15003904 -s 4 -d 3 -p ack -e 40 -c 1 -i 8 -a 1 -x {4.0 0.0 2 ------- null}
- -t 3.15003904 -s 4 -d 3 -p ack -e 40 -c 1 -i 8 -a 1 -x {4.0 0.0 2 ------- null}
h -t 3.15003904 -s 4 -d 3 -p ack -e 40 -c 1 -i 8 -a 1 -x {4.0 0.0 -1 ------- null}
r -t 3.3000016 -s 2 -d 1 -p ack -e 40 -c 2 -i 3 -a 2 -x {5.0 1.0 0 ------- null}
+ -t 3.3000016 -s 1 -d 2 -p tcp -e 1040 -c 2 -i 9 -a 2 -x {1.0 5.0 1 ------- null}
- -t 3.3000016 -s 1 -d 2 -p tcp -e 1040 -c 2 -i 9 -a 2 -x {1.0 5.0 1 ------- null}
h -t 3.3000016 -s 1 -d 2 -p tcp -e 1040 -c 2 -i 9 -a 2 -x {1.0 5.0 -1 ------- null}
r -t 3.65002248 -s 4 -d 3 -p ack -e 40 -c 1 -i 7 -a 1 -x {4.0 0.0 1 ------- null}
+ -t 3.65002248 -s 3 -d 2 -p ack -e 40 -c 1 -i 7 -a 1 -x {4.0 0.0 1 ------- null}
- -t 3.65002248 -s 3 -d 2 -p ack -e 40 -c 1 -i 7 -a 1 -x {4.0 0.0 1 ------- null}
h -t 3.65002248 -s 3 -d 2 -p ack -e 40 -c 1 -i 7 -a 1 -x {4.0 0.0 -1 ------- null}
r -t 3.65003912 -s 4 -d 3 -p ack -e 40 -c 1 -i 8 -a 1 -x {4.0 0.0 2 ------- null}
+ -t 3.65003912 -s 3 -d 2 -p ack -e 40 -c 1 -i 8 -a 1 -x {4.0 0.0 2 ------- null}
- -t 3.65003912 -s 3 -d 2 -p ack -e 40 -c 1 -i 8 -a 1 -x {4.0 0.0 2 ------- null}
h -t 3.65003912 -s 3 -d 2 -p ack -e 40 -c 1 -i 8 -a 1 -x {4.0 0.0 -1 ------- null}
r -t 3.70002312 -s 3 -d 2 -p ack -e 40 -c 1 -i 7 -a 1 -x {4.0 0.0 1 ------- null}
+ -t 3.70002312 -s 2 -d 0 -p ack -e 40 -c 1 -i 7 -a 1 -x {4.0 0.0 1 ------- null}
- -t 3.70002312 -s 2 -d 0 -p ack -e 40 -c 1 -i 7 -a 1 -x {4.0 0.0 1 ------- null}
h -t 3.70002312 -s 2 -d 0 -p ack -e 40 -c 1 -i 7 -a 1 -x {4.0 0.0 -1 ------- null}
r -t 3.70003976 -s 3 -d 2 -p ack -e 40 -c 1 -i 8 -a 1 -x {4.0 0.0 2 ------- null}
+ -t 3.70003976 -s 2 -d 0 -p ack -e 40 -c 1 -i 8 -a 1 -x {4.0 0.0 2 ------- null}
- -t 3.70003976 -s 2 -d 0 -p ack -e 40 -c 1 -i 8 -a 1 -x {4.0 0.0 2 ------- null}
h -t 3.70003976 -s 2 -d 0 -p ack -e 40 -c 1 -i 8 -a 1 -x {4.0 0.0 -1 ------- null}
r -t 3.80000008 -s 1 -d 2 -p tcp -e 40 -c 2 -i 6 -a 2 -x {1.0 5.0 0 ---A--- null}
+ -t 3.80000008 -s 2 -d 3 -p tcp -e 40 -c 2 -i 6 -a 2 -x {1.0 5.0 0 ---A--- null}
- -t 3.80000008 -s 2 -d 3 -p tcp -e 40 -c 2 -i 6 -a 2 -x {1.0 5.0 0 ---A--- null}
h -t 3.80000008 -s 2 -d 3 -p tcp -e 40 -c 2 -i 6 -a 2 -x {1.0 5.0 -1 ---A--- null}
r -t 3.85000072 -s 2 -d 3 -p tcp -e 40 -c 2 -i 6 -a 2 -x {1.0 5.0 0 ---A--- null}
+ -t 3.85000072 -s 3 -d 5 -p tcp -e 40 -c 2 -i 6 -a 2 -x {1.0 5.0 0 ---A--- null}
- -t 3.85000072 -s 3 -d 5 -p tcp -e 40 -c 2 -i 6 -a 2 -x {1.0 5.0 0 ---A--- null}
h -t 3.85000072 -s 3 -d 5 -p tcp -e 40 -c 2 -i 6 -a 2 -x {1.0 5.0 -1 ---A--- null}
r -t 4.10000368 -s 1 -d 2 -p tcp -e 1040 -c 2 -i 9 -a 2 -x {1.0 5.0 1 ------- null}
+ -t 4.10000368 -s 2 -d 3 -p tcp -e 1040 -c 2 -i 9 -a 2 -x {1.0 5.0 1 ------- null}
- -t 4.10000368 -s 2 -d 3 -p tcp -e 1040 -c 2 -i 9 -a 2 -x {1.0 5.0 1 ------- null}
h -t 4.10000368 -s 2 -d 3 -p tcp -e 1040 -c 2 -i 9 -a 2 -x {1.0 5.0 -1 ------- null}
r -t 4.15002032 -s 2 -d 3 -p tcp -e 1040 -c 2 -i 9 -a 2 -x {1.0 5.0 1 ------- null}
+ -t 4.15002032 -s 3 -d 5 -p tcp -e 1040 -c 2 -i 9 -a 2 -x {1.0 5.0 1 ------- null}
- -t 4.15002032 -s 3 -d 5 -p tcp -e 1040 -c 2 -i 9 -a 2 -x {1.0 5.0 1 ------- null}
h -t 4.15002032 -s 3 -d 5 -p tcp -e 1040 -c 2 -i 9 -a 2 -x {1.0 5.0 -1 ------- null}
r -t 4.2000232 -s 2 -d 0 -p ack -e 40 -c 1 -i 7 -a 1 -x {4.0 0.0 1 ------- null}
+ -t 4.2000232 -s 0 -d 2 -p tcp -e 1040 -c 1 -i 10 -a 1 -x {0.0 4.0 3 ------- null}
- -t 4.2000232 -s 0 -d 2 -p tcp -e 1040 -c 1 -i 10 -a 1 -x {0.0 4.0 3 ------- null}
h -t 4.2000232 -s 0 -d 2 -p tcp -e 1040 -c 1 -i 10 -a 1 -x {0.0 4.0 -1 ------- null}
+ -t 4.2000232 -s 0 -d 2 -p tcp -e 1040 -c 1 -i 11 -a 1 -x {0.0 4.0 4 ------- null}
- -t 4.20002528 -s 0 -d 2 -p tcp -e 1040 -c 1 -i 11 -a 1 -x {0.0 4.0 4 ------- null}
h -t 4.20002528 -s 0 -d 2 -p tcp -e 1040 -c 1 -i 11 -a 1 -x {0.0 4.0 -1 ------- null}
r -t 4.20003984 -s 2 -d 0 -p ack -e 40 -c 1 -i 8 -a 1 -x {4.0 0.0 2 ------- null}
+ -t 4.20003984 -s 0 -d 2 -p tcp -e 1040 -c 1 -i 12 -a 1 -x {0.0 4.0 5 ------- null}
- -t 4.20003984 -s 0 -d 2 -p tcp -e 1040 -c 1 -i 12 -a 1 -x {0.0 4.0 5 ------- null}
h -t 4.20003984 -s 0 -d 2 -p tcp -e 1040 -c 1 -i 12 -a 1 -x {0.0 4.0 -1 ------- null}
+ -t 4.20003984 -s 0 -d 2 -p tcp -e 1040 -c 1 -i 13 -a 1 -x {0.0 4.0 6 ------- null}
- -t 4.20004192 -s 0 -d 2 -p tcp -e 1040 -c 1 -i 13 -a 1 -x {0.0 4.0 6 ------- null}
h -t 4.20004192 -s 0 -d 2 -p tcp -e 1040 -c 1 -i 13 -a 1 -x {0.0 4.0 -1 ------- null}
r -t 4.6500008 -s 3 -d 5 -p tcp -e 40 -c 2 -i 6 -a 2 -x {1.0 5.0 0 ---A--- null}
+ -t 4.6500008 -s 5 -d 3 -p ack -e 40 -c 2 -i 14 -a 2 -x {5.0 1.0 0 ------- null}
- -t 4.6500008 -s 5 -d 3 -p ack -e 40 -c 2 -i 14 -a 2 -x {5.0 1.0 0 ------- null}
h -t 4.6500008 -s 5 -d 3 -p ack -e 40 -c 2 -i 14 -a 2 -x {5.0 1.0 -1 ------- null}
r -t 4.70002528 -s 0 -d 2 -p tcp -e 1040 -c 1 -i 10 -a 1 -x {0.0 4.0 3 ------- null}
+ -t 4.70002528 -s 2 -d 3 -p tcp -e 1040 -c 1 -i 10 -a 1 -x {0.0 4.0 3 ------- null}
- -t 4.70002528 -s 2 -d 3 -p tcp -e 1040 -c 1 -i 10 -a 1 -x {0.0 4.0 3 ------- null}
h -t 4.70002528 -s 2 -d 3 -p tcp -e 1040 -c 1 -i 10 -a 1 -x {0.0 4.0 -1 ------- null}
r -t 4.70002736 -s 0 -d 2 -p tcp -e 1040 -c 1 -i 11 -a 1 -x {0.0 4.0 4 ------- null}
+ -t 4.70002736 -s 2 -d 3 -p tcp -e 1040 -c 1 -i 11 -a 1 -x {0.0 4.0 4 ------- null}
r -t 4.70004192 -s 0 -d 2 -p tcp -e 1040 -c 1 -i 12 -a 1 -x {0.0 4.0 5 ------- null}
+ -t 4.70004192 -s 2 -d 3 -p tcp -e 1040 -c 1 -i 12 -a 1 -x {0.0 4.0 5 ------- null}
- -t 4.70004192 -s 2 -d 3 -p tcp -e 1040 -c 1 -i 11 -a 1 -x {0.0 4.0 4 ------- null}
h -t 4.70004192 -s 2 -d 3 -p tcp -e 1040 -c 1 -i 11 -a 1 -x {0.0 4.0 -1 ------- null}
r -t 4.700044 -s 0 -d 2 -p tcp -e 1040 -c 1 -i 13 -a 1 -x {0.0 4.0 6 ------- null}
+ -t 4.700044 -s 2 -d 3 -p tcp -e 1040 -c 1 -i 13 -a 1 -x {0.0 4.0 6 ------- null}
- -t 4.70005856 -s 2 -d 3 -p tcp -e 1040 -c 1 -i 12 -a 1 -x {0.0 4.0 5 ------- null}
h -t 4.70005856 -s 2 -d 3 -p tcp -e 1040 -c 1 -i 12 -a 1 -x {0.0 4.0 -1 ------- null}
- -t 4.7000752 -s 2 -d 3 -p tcp -e 1040 -c 1 -i 13 -a 1 -x {0.0 4.0 6 ------- null}
h -t 4.7000752 -s 2 -d 3 -p tcp -e 1040 -c 1 -i 13 -a 1 -x {0.0 4.0 -1 ------- null}
r -t 4.75004192 -s 2 -d 3 -p tcp -e 1040 -c 1 -i 10 -a 1 -x {0.0 4.0 3 ------- null}
+ -t 4.75004192 -s 3 -d 4 -p tcp -e 1040 -c 1 -i 10 -a 1 -x {0.0 4.0 3 ------- null}
- -t 4.75004192 -s 3 -d 4 -p tcp -e 1040 -c 1 -i 10 -a 1 -x {0.0 4.0 3 ------- null}
h -t 4.75004192 -s 3 -d 4 -p tcp -e 1040 -c 1 -i 10 -a 1 -x {0.0 4.0 -1 ------- null}
r -t 4.75005856 -s 2 -d 3 -p tcp -e 1040 -c 1 -i 11 -a 1 -x {0.0 4.0 4 ------- null}
+ -t 4.75005856 -s 3 -d 4 -p tcp -e 1040 -c 1 -i 11 -a 1 -x {0.0 4.0 4 ------- null}
- -t 4.75005856 -s 3 -d 4 -p tcp -e 1040 -c 1 -i 11 -a 1 -x {0.0 4.0 4 ------- null}
h -t 4.75005856 -s 3 -d 4 -p tcp -e 1040 -c 1 -i 11 -a 1 -x {0.0 4.0 -1 ------- null}
r -t 4.7500752 -s 2 -d 3 -p tcp -e 1040 -c 1 -i 12 -a 1 -x {0.0 4.0 5 ------- null}
+ -t 4.7500752 -s 3 -d 4 -p tcp -e 1040 -c 1 -i 12 -a 1 -x {0.0 4.0 5 ------- null}
- -t 4.7500752 -s 3 -d 4 -p tcp -e 1040 -c 1 -i 12 -a 1 -x {0.0 4.0 5 ------- null}
h -t 4.7500752 -s 3 -d 4 -p tcp -e 1040 -c 1 -i 12 -a 1 -x {0.0 4.0 -1 ------- null}
r -t 4.75009184 -s 2 -d 3 -p tcp -e 1040 -c 1 -i 13 -a 1 -x {0.0 4.0 6 ------- null}
+ -t 4.75009184 -s 3 -d 4 -p tcp -e 1040 -c 1 -i 13 -a 1 -x {0.0 4.0 6 ------- null}
- -t 4.75009184 -s 3 -d 4 -p tcp -e 1040 -c 1 -i 13 -a 1 -x {0.0 4.0 6 ------- null}
h -t 4.75009184 -s 3 -d 4 -p tcp -e 1040 -c 1 -i 13 -a 1 -x {0.0 4.0 -1 ------- null}
r -t 4.9500224 -s 3 -d 5 -p tcp -e 1040 -c 2 -i 9 -a 2 -x {1.0 5.0 1 ------- null}
+ -t 4.9500224 -s 5 -d 3 -p ack -e 40 -c 2 -i 15 -a 2 -x {5.0 1.0 1 ------- null}
- -t 4.9500224 -s 5 -d 3 -p ack -e 40 -c 2 -i 15 -a 2 -x {5.0 1.0 1 ------- null}
h -t 4.9500224 -s 5 -d 3 -p ack -e 40 -c 2 -i 15 -a 2 -x {5.0 1.0 -1 ------- null}
r -t 5.250044 -s 3 -d 4 -p tcp -e 1040 -c 1 -i 10 -a 1 -x {0.0 4.0 3 ------- null}
+ -t 5.250044 -s 4 -d 3 -p ack -e 40 -c 1 -i 16 -a 1 -x {4.0 0.0 3 ------- null}
- -t 5.250044 -s 4 -d 3 -p ack -e 40 -c 1 -i 16 -a 1 -x {4.0 0.0 3 ------- null}
h -t 5.250044 -s 4 -d 3 -p ack -e 40 -c 1 -i 16 -a 1 -x {4.0 0.0 -1 ------- null}
r -t 5.25006064 -s 3 -d 4 -p tcp -e 1040 -c 1 -i 11 -a 1 -x {0.0 4.0 4 ------- null}
+ -t 5.25006064 -s 4 -d 3 -p ack -e 40 -c 1 -i 17 -a 1 -x {4.0 0.0 4 ------- null}
- -t 5.25006064 -s 4 -d 3 -p ack -e 40 -c 1 -i 17 -a 1 -x {4.0 0.0 4 ------- null}
h -t 5.25006064 -s 4 -d 3 -p ack -e 40 -c 1 -i 17 -a 1 -x {4.0 0.0 -1 ------- null}
r -t 5.25007728 -s 3 -d 4 -p tcp -e 1040 -c 1 -i 12 -a 1 -x {0.0 4.0 5 ------- null}
+ -t 5.25007728 -s 4 -d 3 -p ack -e 40 -c 1 -i 18 -a 1 -x {4.0 0.0 5 ------- null}
- -t 5.25007728 -s 4 -d 3 -p ack -e 40 -c 1 -i 18 -a 1 -x {4.0 0.0 5 ------- null}
h -t 5.25007728 -s 4 -d 3 -p ack -e 40 -c 1 -i 18 -a 1 -x {4.0 0.0 -1 ------- null}
r -t 5.25009392 -s 3 -d 4 -p tcp -e 1040 -c 1 -i 13 -a 1 -x {0.0 4.0 6 ------- null}
+ -t 5.25009392 -s 4 -d 3 -p ack -e 40 -c 1 -i 19 -a 1 -x {4.0 0.0 6 ------- null}
- -t 5.25009392 -s 4 -d 3 -p ack -e 40 -c 1 -i 19 -a 1 -x {4.0 0.0 6 ------- null}
h -t 5.25009392 -s 4 -d 3 -p ack -e 40 -c 1 -i 19 -a 1 -x {4.0 0.0 -1 ------- null}
r -t 5.45000088 -s 5 -d 3 -p ack -e 40 -c 2 -i 14 -a 2 -x {5.0 1.0 0 ------- null}
+ -t 5.45000088 -s 3 -d 2 -p ack -e 40 -c 2 -i 14 -a 2 -x {5.0 1.0 0 ------- null}
- -t 5.45000088 -s 3 -d 2 -p ack -e 40 -c 2 -i 14 -a 2 -x {5.0 1.0 0 ------- null}
h -t 5.45000088 -s 3 -d 2 -p ack -e 40 -c 2 -i 14 -a 2 -x {5.0 1.0 -1 ------- null}
r -t 5.50000152 -s 3 -d 2 -p ack -e 40 -c 2 -i 14 -a 2 -x {5.0 1.0 0 ------- null}
+ -t 5.50000152 -s 2 -d 1 -p ack -e 40 -c 2 -i 14 -a 2 -x {5.0 1.0 0 ------- null}
- -t 5.50000152 -s 2 -d 1 -p ack -e 40 -c 2 -i 14 -a 2 -x {5.0 1.0 0 ------- null}
h -t 5.50000152 -s 2 -d 1 -p ack -e 40 -c 2 -i 14 -a 2 -x {5.0 1.0 -1 ------- null}
r -t 5.75002248 -s 5 -d 3 -p ack -e 40 -c 2 -i 15 -a 2 -x {5.0 1.0 1 ------- null}
+ -t 5.75002248 -s 3 -d 2 -p ack -e 40 -c 2 -i 15 -a 2 -x {5.0 1.0 1 ------- null}
- -t 5.75002248 -s 3 -d 2 -p ack -e 40 -c 2 -i 15 -a 2 -x {5.0 1.0 1 ------- null}
h -t 5.75002248 -s 3 -d 2 -p ack -e 40 -c 2 -i 15 -a 2 -x {5.0 1.0 -1 ------- null}
r -t 5.75004408 -s 4 -d 3 -p ack -e 40 -c 1 -i 16 -a 1 -x {4.0 0.0 3 ------- null}
+ -t 5.75004408 -s 3 -d 2 -p ack -e 40 -c 1 -i 16 -a 1 -x {4.0 0.0 3 ------- null}
- -t 5.75004408 -s 3 -d 2 -p ack -e 40 -c 1 -i 16 -a 1 -x {4.0 0.0 3 ------- null}
h -t 5.75004408 -s 3 -d 2 -p ack -e 40 -c 1 -i 16 -a 1 -x {4.0 0.0 -1 ------- null}
r -t 5.75006072 -s 4 -d 3 -p ack -e 40 -c 1 -i 17 -a 1 -x {4.0 0.0 4 ------- null}
+ -t 5.75006072 -s 3 -d 2 -p ack -e 40 -c 1 -i 17 -a 1 -x {4.0 0.0 4 ------- null}
- -t 5.75006072 -s 3 -d 2 -p ack -e 40 -c 1 -i 17 -a 1 -x {4.0 0.0 4 ------- null}
h -t 5.75006072 -s 3 -d 2 -p ack -e 40 -c 1 -i 17 -a 1 -x {4.0 0.0 -1 ------- null}
r -t 5.75007736 -s 4 -d 3 -p ack -e 40 -c 1 -i 18 -a 1 -x {4.0 0.0 5 ------- null}
+ -t 5.75007736 -s 3 -d 2 -p ack -e 40 -c 1 -i 18 -a 1 -x {4.0 0.0 5 ------- null}
- -t 5.75007736 -s 3 -d 2 -p ack -e 40 -c 1 -i 18 -a 1 -x {4.0 0.0 5 ------- null}
h -t 5.75007736 -s 3 -d 2 -p ack -e 40 -c 1 -i 18 -a 1 -x {4.0 0.0 -1 ------- null}
r -t 5.750094 -s 4 -d 3 -p ack -e 40 -c 1 -i 19 -a 1 -x {4.0 0.0 6 ------- null}
+ -t 5.750094 -s 3 -d 2 -p ack -e 40 -c 1 -i 19 -a 1 -x {4.0 0.0 6 ------- null}
- -t 5.750094 -s 3 -d 2 -p ack -e 40 -c 1 -i 19 -a 1 -x {4.0 0.0 6 ------- null}
h -t 5.750094 -s 3 -d 2 -p ack -e 40 -c 1 -i 19 -a 1 -x {4.0 0.0 -1 ------- null}
r -t 5.80002312 -s 3 -d 2 -p ack -e 40 -c 2 -i 15 -a 2 -x {5.0 1.0 1 ------- null}
+ -t 5.80002312 -s 2 -d 1 -p ack -e 40 -c 2 -i 15 -a 2 -x {5.0 1.0 1 ------- null}
- -t 5.80002312 -s 2 -d 1 -p ack -e 40 -c 2 -i 15 -a 2 -x {5.0 1.0 1 ------- null}
h -t 5.80002312 -s 2 -d 1 -p ack -e 40 -c 2 -i 15 -a 2 -x {5.0 1.0 -1 ------- null}
r -t 5.80004472 -s 3 -d 2 -p ack -e 40 -c 1 -i 16 -a 1 -x {4.0 0.0 3 ------- null}
+ -t 5.80004472 -s 2 -d 0 -p ack -e 40 -c 1 -i 16 -a 1 -x {4.0 0.0 3 ------- null}
- -t 5.80004472 -s 2 -d 0 -p ack -e 40 -c 1 -i 16 -a 1 -x {4.0 0.0 3 ------- null}
h -t 5.80004472 -s 2 -d 0 -p ack -e 40 -c 1 -i 16 -a 1 -x {4.0 0.0 -1 ------- null}
r -t 5.80006136 -s 3 -d 2 -p ack -e 40 -c 1 -i 17 -a 1 -x {4.0 0.0 4 ------- null}
+ -t 5.80006136 -s 2 -d 0 -p ack -e 40 -c 1 -i 17 -a 1 -x {4.0 0.0 4 ------- null}
- -t 5.80006136 -s 2 -d 0 -p ack -e 40 -c 1 -i 17 -a 1 -x {4.0 0.0 4 ------- null}
h -t 5.80006136 -s 2 -d 0 -p ack -e 40 -c 1 -i 17 -a 1 -x {4.0 0.0 -1 ------- null}
r -t 5.800078 -s 3 -d 2 -p ack -e 40 -c 1 -i 18 -a 1 -x {4.0 0.0 5 ------- null}
+ -t 5.800078 -s 2 -d 0 -p ack -e 40 -c 1 -i 18 -a 1 -x {4.0 0.0 5 ------- null}
- -t 5.800078 -s 2 -d 0 -p ack -e 40 -c 1 -i 18 -a 1 -x {4.0 0.0 5 ------- null}
h -t 5.800078 -s 2 -d 0 -p ack -e 40 -c 1 -i 18 -a 1 -x {4.0 0.0 -1 ------- null}
r -t 5.80009464 -s 3 -d 2 -p ack -e 40 -c 1 -i 19 -a 1 -x {4.0 0.0 6 ------- null}
+ -t 5.80009464 -s 2 -d 0 -p ack -e 40 -c 1 -i 19 -a 1 -x {4.0 0.0 6 ------- null}
- -t 5.80009464 -s 2 -d 0 -p ack -e 40 -c 1 -i 19 -a 1 -x {4.0 0.0 6 ------- null}
h -t 5.80009464 -s 2 -d 0 -p ack -e 40 -c 1 -i 19 -a 1 -x {4.0 0.0 -1 ------- null}
r -t 6.3000016 -s 2 -d 1 -p ack -e 40 -c 2 -i 14 -a 2 -x {5.0 1.0 0 ------- null}
+ -t 6.3000016 -s 1 -d 2 -p tcp -e 1040 -c 2 -i 20 -a 2 -x {1.0 5.0 2 ------- null}
- -t 6.3000016 -s 1 -d 2 -p tcp -e 1040 -c 2 -i 20 -a 2 -x {1.0 5.0 2 ------- null}
h -t 6.3000016 -s 1 -d 2 -p tcp -e 1040 -c 2 -i 20 -a 2 -x {1.0 5.0 -1 ------- null}
r -t 6.3000448 -s 2 -d 0 -p ack -e 40 -c 1 -i 16 -a 1 -x {4.0 0.0 3 ------- null}
+ -t 6.3000448 -s 0 -d 2 -p tcp -e 1040 -c 1 -i 21 -a 1 -x {0.0 4.0 7 ------- null}
- -t 6.3000448 -s 0 -d 2 -p tcp -e 1040 -c 1 -i 21 -a 1 -x {0.0 4.0 7 ------- null}
h -t 6.3000448 -s 0 -d 2 -p tcp -e 1040 -c 1 -i 21 -a 1 -x {0.0 4.0 -1 ------- null}
+ -t 6.3000448 -s 0 -d 2 -p tcp -e 1040 -c 1 -i 22 -a 1 -x {0.0 4.0 8 ------- null}
- -t 6.30004688 -s 0 -d 2 -p tcp -e 1040 -c 1 -i 22 -a 1 -x {0.0 4.0 8 ------- null}
h -t 6.30004688 -s 0 -d 2 -p tcp -e 1040 -c 1 -i 22 -a 1 -x {0.0 4.0 -1 ------- null}
r -t 6.30006144 -s 2 -d 0 -p ack -e 40 -c 1 -i 17 -a 1 -x {4.0 0.0 4 ------- null}
+ -t 6.30006144 -s 0 -d 2 -p tcp -e 1040 -c 1 -i 23 -a 1 -x {0.0 4.0 9 ------- null}
- -t 6.30006144 -s 0 -d 2 -p tcp -e 1040 -c 1 -i 23 -a 1 -x {0.0 4.0 9 ------- null}
h -t 6.30006144 -s 0 -d 2 -p tcp -e 1040 -c 1 -i 23 -a 1 -x {0.0 4.0 -1 ------- null}
+ -t 6.30006144 -s 0 -d 2 -p tcp -e 1040 -c 1 -i 24 -a 1 -x {0.0 4.0 10 ------- null}
- -t 6.30006352 -s 0 -d 2 -p tcp -e 1040 -c 1 -i 24 -a 1 -x {0.0 4.0 10 ------- null}
h -t 6.30006352 -s 0 -d 2 -p tcp -e 1040 -c 1 -i 24 -a 1 -x {0.0 4.0 -1 ------- null}
r -t 6.30007808 -s 2 -d 0 -p ack -e 40 -c 1 -i 18 -a 1 -x {4.0 0.0 5 ------- null}
+ -t 6.30007808 -s 0 -d 2 -p tcp -e 1040 -c 1 -i 25 -a 1 -x {0.0 4.0 11 ------- null}
- -t 6.30007808 -s 0 -d 2 -p tcp -e 1040 -c 1 -i 25 -a 1 -x {0.0 4.0 11 ------- null}
h -t 6.30007808 -s 0 -d 2 -p tcp -e 1040 -c 1 -i 25 -a 1 -x {0.0 4.0 -1 ------- null}
+ -t 6.30007808 -s 0 -d 2 -p tcp -e 1040 -c 1 -i 26 -a 1 -x {0.0 4.0 12 ------- null}
- -t 6.30008016 -s 0 -d 2 -p tcp -e 1040 -c 1 -i 26 -a 1 -x {0.0 4.0 12 ------- null}
h -t 6.30008016 -s 0 -d 2 -p tcp -e 1040 -c 1 -i 26 -a 1 -x {0.0 4.0 -1 ------- null}
r -t 6.30009472 -s 2 -d 0 -p ack -e 40 -c 1 -i 19 -a 1 -x {4.0 0.0 6 ------- null}
+ -t 6.30009472 -s 0 -d 2 -p tcp -e 1040 -c 1 -i 27 -a 1 -x {0.0 4.0 13 ------- null}
- -t 6.30009472 -s 0 -d 2 -p tcp -e 1040 -c 1 -i 27 -a 1 -x {0.0 4.0 13 ------- null}
h -t 6.30009472 -s 0 -d 2 -p tcp -e 1040 -c 1 -i 27 -a 1 -x {0.0 4.0 -1 ------- null}
+ -t 6.30009472 -s 0 -d 2 -p tcp -e 1040 -c 1 -i 28 -a 1 -x {0.0 4.0 14 ------- null}
- -t 6.3000968 -s 0 -d 2 -p tcp -e 1040 -c 1 -i 28 -a 1 -x {0.0 4.0 14 ------- null}
h -t 6.3000968 -s 0 -d 2 -p tcp -e 1040 -c 1 -i 28 -a 1 -x {0.0 4.0 -1 ------- null}
r -t 6.6000232 -s 2 -d 1 -p ack -e 40 -c 2 -i 15 -a 2 -x {5.0 1.0 1 ------- null}
+ -t 6.6000232 -s 1 -d 2 -p tcp -e 1040 -c 2 -i 29 -a 2 -x {1.0 5.0 3 ------- null}
- -t 6.6000232 -s 1 -d 2 -p tcp -e 1040 -c 2 -i 29 -a 2 -x {1.0 5.0 3 ------- null}
h -t 6.6000232 -s 1 -d 2 -p tcp -e 1040 -c 2 -i 29 -a 2 -x {1.0 5.0 -1 ------- null}
r -t 6.80004688 -s 0 -d 2 -p tcp -e 1040 -c 1 -i 21 -a 1 -x {0.0 4.0 7 ------- null}
+ -t 6.80004688 -s 2 -d 3 -p tcp -e 1040 -c 1 -i 21 -a 1 -x {0.0 4.0 7 ------- null}
- -t 6.80004688 -s 2 -d 3 -p tcp -e 1040 -c 1 -i 21 -a 1 -x {0.0 4.0 7 ------- null}
h -t 6.80004688 -s 2 -d 3 -p tcp -e 1040 -c 1 -i 21 -a 1 -x {0.0 4.0 -1 ------- null}
r -t 6.80004896 -s 0 -d 2 -p tcp -e 1040 -c 1 -i 22 -a 1 -x {0.0 4.0 8 ------- null}
+ -t 6.80004896 -s 2 -d 3 -p tcp -e 1040 -c 1 -i 22 -a 1 -x {0.0 4.0 8 ------- null}
r -t 6.80006352 -s 0 -d 2 -p tcp -e 1040 -c 1 -i 23 -a 1 -x {0.0 4.0 9 ------- null}
+ -t 6.80006352 -s 2 -d 3 -p tcp -e 1040 -c 1 -i 23 -a 1 -x {0.0 4.0 9 ------- null}
- -t 6.80006352 -s 2 -d 3 -p tcp -e 1040 -c 1 -i 22 -a 1 -x {0.0 4.0 8 ------- null}
h -t 6.80006352 -s 2 -d 3 -p tcp -e 1040 -c 1 -i 22 -a 1 -x {0.0 4.0 -1 ------- null}
r -t 6.8000656 -s 0 -d 2 -p tcp -e 1040 -c 1 -i 24 -a 1 -x {0.0 4.0 10 ------- null}
+ -t 6.8000656 -s 2 -d 3 -p tcp -e 1040 -c 1 -i 24 -a 1 -x {0.0 4.0 10 ------- null}
r -t 6.80008016 -s 0 -d 2 -p tcp -e 1040 -c 1 -i 25 -a 1 -x {0.0 4.0 11 ------- null}
+ -t 6.80008016 -s 2 -d 3 -p tcp -e 1040 -c 1 -i 25 -a 1 -x {0.0 4.0 11 ------- null}
- -t 6.80008016 -s 2 -d 3 -p tcp -e 1040 -c 1 -i 23 -a 1 -x {0.0 4.0 9 ------- null}
h -t 6.80008016 -s 2 -d 3 -p tcp -e 1040 -c 1 -i 23 -a 1 -x {0.0 4.0 -1 ------- null}
r -t 6.80008224 -s 0 -d 2 -p tcp -e 1040 -c 1 -i 26 -a 1 -x {0.0 4.0 12 ------- null}
+ -t 6.80008224 -s 2 -d 3 -p tcp -e 1040 -c 1 -i 26 -a 1 -x {0.0 4.0 12 ------- null}
r -t 6.8000968 -s 0 -d 2 -p tcp -e 1040 -c 1 -i 27 -a 1 -x {0.0 4.0 13 ------- null}
+ -t 6.8000968 -s 2 -d 3 -p tcp -e 1040 -c 1 -i 27 -a 1 -x {0.0 4.0 13 ------- null}
- -t 6.8000968 -s 2 -d 3 -p tcp -e 1040 -c 1 -i 24 -a 1 -x {0.0 4.0 10 ------- null}
h -t 6.8000968 -s 2 -d 3 -p tcp -e 1040 -c 1 -i 24 -a 1 -x {0.0 4.0 -1 ------- null}
r -t 6.80009888 -s 0 -d 2 -p tcp -e 1040 -c 1 -i 28 -a 1 -x {0.0 4.0 14 ------- null}
+ -t 6.80009888 -s 2 -d 3 -p tcp -e 1040 -c 1 -i 28 -a 1 -x {0.0 4.0 14 ------- null}
- -t 6.80011344 -s 2 -d 3 -p tcp -e 1040 -c 1 -i 25 -a 1 -x {0.0 4.0 11 ------- null}
h -t 6.80011344 -s 2 -d 3 -p tcp -e 1040 -c 1 -i 25 -a 1 -x {0.0 4.0 -1 ------- null}
- -t 6.80013008 -s 2 -d 3 -p tcp -e 1040 -c 1 -i 26 -a 1 -x {0.0 4.0 12 ------- null}
h -t 6.80013008 -s 2 -d 3 -p tcp -e 1040 -c 1 -i 26 -a 1 -x {0.0 4.0 -1 ------- null}
- -t 6.80014672 -s 2 -d 3 -p tcp -e 1040 -c 1 -i 27 -a 1 -x {0.0 4.0 13 ------- null}
h -t 6.80014672 -s 2 -d 3 -p tcp -e 1040 -c 1 -i 27 -a 1 -x {0.0 4.0 -1 ------- null}
- -t 6.80016336 -s 2 -d 3 -p tcp -e 1040 -c 1 -i 28 -a 1 -x {0.0 4.0 14 ------- null}
h -t 6.80016336 -s 2 -d 3 -p tcp -e 1040 -c 1 -i 28 -a 1 -x {0.0 4.0 -1 ------- null}
r -t 6.85006352 -s 2 -d 3 -p tcp -e 1040 -c 1 -i 21 -a 1 -x {0.0 4.0 7 ------- null}
+ -t 6.85006352 -s 3 -d 4 -p tcp -e 1040 -c 1 -i 21 -a 1 -x {0.0 4.0 7 ------- null}
- -t 6.85006352 -s 3 -d 4 -p tcp -e 1040 -c 1 -i 21 -a 1 -x {0.0 4.0 7 ------- null}
h -t 6.85006352 -s 3 -d 4 -p tcp -e 1040 -c 1 -i 21 -a 1 -x {0.0 4.0 -1 ------- null}
r -t 6.85008016 -s 2 -d 3 -p tcp -e 1040 -c 1 -i 22 -a 1 -x {0.0 4.0 8 ------- null}
+ -t 6.85008016 -s 3 -d 4 -p tcp -e 1040 -c 1 -i 22 -a 1 -x {0.0 4.0 8 ------- null}
- -t 6.85008016 -s 3 -d 4 -p tcp -e 1040 -c 1 -i 22 -a 1 -x {0.0 4.0 8 ------- null}
h -t 6.85008016 -s 3 -d 4 -p tcp -e 1040 -c 1 -i 22 -a 1 -x {0.0 4.0 -1 ------- null}
r -t 6.8500968 -s 2 -d 3 -p tcp -e 1040 -c 1 -i 23 -a 1 -x {0.0 4.0 9 ------- null}
+ -t 6.8500968 -s 3 -d 4 -p tcp -e 1040 -c 1 -i 23 -a 1 -x {0.0 4.0 9 ------- null}
- -t 6.8500968 -s 3 -d 4 -p tcp -e 1040 -c 1 -i 23 -a 1 -x {0.0 4.0 9 ------- null}
h -t 6.8500968 -s 3 -d 4 -p tcp -e 1040 -c 1 -i 23 -a 1 -x {0.0 4.0 -1 ------- null}
r -t 6.85011344 -s 2 -d 3 -p tcp -e 1040 -c 1 -i 24 -a 1 -x {0.0 4.0 10 ------- null}
+ -t 6.85011344 -s 3 -d 4 -p tcp -e 1040 -c 1 -i 24 -a 1 -x {0.0 4.0 10 ------- null}
- -t 6.85011344 -s 3 -d 4 -p tcp -e 1040 -c 1 -i 24 -a 1 -x {0.0 4.0 10 ------- null}
h -t 6.85011344 -s 3 -d 4 -p tcp -e 1040 -c 1 -i 24 -a 1 -x {0.0 4.0 -1 ------- null}
r -t 6.85013008 -s 2 -d 3 -p tcp -e 1040 -c 1 -i 25 -a 1 -x {0.0 4.0 11 ------- null}
+ -t 6.85013008 -s 3 -d 4 -p tcp -e 1040 -c 1 -i 25 -a 1 -x {0.0 4.0 11 ------- null}
- -t 6.85013008 -s 3 -d 4 -p tcp -e 1040 -c 1 -i 25 -a 1 -x {0.0 4.0 11 ------- null}
h -t 6.85013008 -s 3 -d 4 -p tcp -e 1040 -c 1 -i 25 -a 1 -x {0.0 4.0 -1 ------- null}
r -t 6.85014672 -s 2 -d 3 -p tcp -e 1040 -c 1 -i 26 -a 1 -x {0.0 4.0 12 ------- null}
+ -t 6.85014672 -s 3 -d 4 -p tcp -e 1040 -c 1 -i 26 -a 1 -x {0.0 4.0 12 ------- null}
- -t 6.85014672 -s 3 -d 4 -p tcp -e 1040 -c 1 -i 26 -a 1 -x {0.0 4.0 12 ------- null}
h -t 6.85014672 -s 3 -d 4 -p tcp -e 1040 -c 1 -i 26 -a 1 -x {0.0 4.0 -1 ------- null}
r -t 6.85016336 -s 2 -d 3 -p tcp -e 1040 -c 1 -i 27 -a 1 -x {0.0 4.0 13 ------- null}
+ -t 6.85016336 -s 3 -d 4 -p tcp -e 1040 -c 1 -i 27 -a 1 -x {0.0 4.0 13 ------- null}
- -t 6.85016336 -s 3 -d 4 -p tcp -e 1040 -c 1 -i 27 -a 1 -x {0.0 4.0 13 ------- null}
h -t 6.85016336 -s 3 -d 4 -p tcp -e 1040 -c 1 -i 27 -a 1 -x {0.0 4.0 -1 ------- null}
r -t 6.85018 -s 2 -d 3 -p tcp -e 1040 -c 1 -i 28 -a 1 -x {0.0 4.0 14 ------- null}
+ -t 6.85018 -s 3 -d 4 -p tcp -e 1040 -c 1 -i 28 -a 1 -x {0.0 4.0 14 ------- null}
- -t 6.85018 -s 3 -d 4 -p tcp -e 1040 -c 1 -i 28 -a 1 -x {0.0 4.0 14 ------- null}
h -t 6.85018 -s 3 -d 4 -p tcp -e 1040 -c 1 -i 28 -a 1 -x {0.0 4.0 -1 ------- null}
r -t 7.10000368 -s 1 -d 2 -p tcp -e 1040 -c 2 -i 20 -a 2 -x {1.0 5.0 2 ------- null}
+ -t 7.10000368 -s 2 -d 3 -p tcp -e 1040 -c 2 -i 20 -a 2 -x {1.0 5.0 2 ------- null}
- -t 7.10000368 -s 2 -d 3 -p tcp -e 1040 -c 2 -i 20 -a 2 -x {1.0 5.0 2 ------- null}
h -t 7.10000368 -s 2 -d 3 -p tcp -e 1040 -c 2 -i 20 -a 2 -x {1.0 5.0 -1 ------- null}
r -t 7.15002032 -s 2 -d 3 -p tcp -e 1040 -c 2 -i 20 -a 2 -x {1.0 5.0 2 ------- null}
+ -t 7.15002032 -s 3 -d 5 -p tcp -e 1040 -c 2 -i 20 -a 2 -x {1.0 5.0 2 ------- null}
- -t 7.15002032 -s 3 -d 5 -p tcp -e 1040 -c 2 -i 20 -a 2 -x {1.0 5.0 2 ------- null}
h -t 7.15002032 -s 3 -d 5 -p tcp -e 1040 -c 2 -i 20 -a 2 -x {1.0 5.0 -1 ------- null}
r -t 7.3500656 -s 3 -d 4 -p tcp -e 1040 -c 1 -i 21 -a 1 -x {0.0 4.0 7 ------- null}
+ -t 7.3500656 -s 4 -d 3 -p ack -e 40 -c 1 -i 30 -a 1 -x {4.0 0.0 7 ------- null}
- -t 7.3500656 -s 4 -d 3 -p ack -e 40 -c 1 -i 30 -a 1 -x {4.0 0.0 7 ------- null}
h -t 7.3500656 -s 4 -d 3 -p ack -e 40 -c 1 -i 30 -a 1 -x {4.0 0.0 -1 ------- null}
r -t 7.35008224 -s 3 -d 4 -p tcp -e 1040 -c 1 -i 22 -a 1 -x {0.0 4.0 8 ------- null}
+ -t 7.35008224 -s 4 -d 3 -p ack -e 40 -c 1 -i 31 -a 1 -x {4.0 0.0 8 ------- null}
- -t 7.35008224 -s 4 -d 3 -p ack -e 40 -c 1 -i 31 -a 1 -x {4.0 0.0 8 ------- null}